/*--------------------------------*- C++ -*----------------------------------*\
| =========                 |                                                 |
| \\      /  F ield         | OpenFOAM: The Open Source CFD Toolbox           |
|  \\    /   O peration     | Version:  3.0.0                                 |
|   \\  /    A nd           | Web:      www.OpenFOAM.org                      |
|    \\/     M anipulation  |                                                 |
\*---------------------------------------------------------------------------*/
FoamFile
{
    version     2.0;
    format      ascii;
    class       volScalarField;
    location    "6";
    object      p;
}
// * * * * * * * * * * * * * * * * * * * * * * * * * * * * * * * * * * * * * //

dimensions      [0 2 -2 0 0 0 0];

internalField   nonuniform List<scalar> 
400
(
8.95095e-06
-0.0581864
-0.130477
-0.186317
-0.207278
-0.185034
-0.118956
-0.0139547
0.121286
0.275651
0.436639
0.59127
0.726946
0.832387
0.898747
0.921013
0.89983
0.843661
0.771146
0.712959
0.0576584
-0.00212451
-0.058821
-0.0973482
-0.108544
-0.0865578
-0.030644
0.055647
0.165725
0.290939
0.421418
0.546859
0.65731
0.743982
0.800144
0.822161
0.810784
0.771974
0.715083
0.655341
0.134131
0.0513256
-0.0100452
-0.0456376
-0.0547729
-0.0342091
0.0159896
0.0923699
0.189139
0.298873
0.413137
0.523128
0.620324
0.697148
0.747652
0.768279
0.758957
0.723037
0.661416
0.578641
0.204804
0.0902363
0.0138827
-0.026734
-0.037861
-0.0185621
0.0298893
0.103395
0.196105
0.300942
0.410041
0.515226
0.60852
0.682657
0.73158
0.751041
0.739733
0.698701
0.621965
0.50734
0.2535
0.105268
0.0109367
-0.0368478
-0.0502564
-0.030406
0.0200851
0.0961348
0.1914
0.298691
0.410241
0.518031
0.614148
0.691155
0.742426
0.762654
0.749133
0.700846
0.605934
0.457441
0.268636
0.085935
-0.0271863
-0.0819179
-0.0958545
-0.0720811
-0.0147077
0.069927
0.174665
0.291867
0.41353
0.531456
0.637454
0.723557
0.782219
0.806763
0.792904
0.737623
0.623659
0.440336
0.240184
0.0218371
-0.109798
-0.169463
-0.180316
-0.147602
-0.0771845
0.0230528
0.144871
0.279952
0.419846
0.555975
0.679651
0.782121
0.854619
0.888764
0.878383
0.81822
0.685429
0.465888
0.157372
-0.0984724
-0.247343
-0.307992
-0.310045
-0.261466
-0.170312
-0.0463403
0.100926
0.262379
0.429081
0.592037
0.742003
0.869313
0.96373
1.01479
1.01392
0.953018
0.802662
0.5448
0.00681261
-0.289047
-0.45257
-0.507814
-0.492717
-0.418987
-0.29753
-0.14035
0.041618
0.238536
0.441125
0.640159
0.825979
0.988037
1.11446
1.19226
1.20974
1.15481
0.989533
0.690553
-0.229318
-0.568126
-0.741503
-0.781388
-0.737166
-0.625919
-0.462283
-0.260891
-0.0340632
0.207914
0.455843
0.70073
0.932919
1.14125
1.31221
1.42984
1.47832
1.43984
1.26462
0.92133
-0.575735
-0.960197
-1.13455
-1.14348
-1.05292
-0.887678
-0.667188
-0.408969
-0.12642
0.170357
0.473039
0.773701
1.06349
1.33128
1.5622
1.737
1.83461
1.82895
1.65306
1.2626
-1.06818
-1.49911
-1.65785
-1.61107
-1.44925
-1.20809
-0.912801
-0.583669
-0.234344
0.12641
0.492431
0.85819
1.21695
1.5588
1.86838
2.12327
2.29604
2.34903
2.18978
1.7514
-1.76129
-2.23296
-2.34474
-2.20256
-1.93336
-1.5873
-1.19577
-0.780744
-0.354396
0.0777516
0.513601
0.951931
1.39007
1.82132
2.23162
2.59653
2.88184
3.03456
2.9245
2.44447
-2.7449
-3.23206
-3.23656
-2.93506
-2.50659
-2.01828
-1.50608
-0.990687
-0.479647
0.0276774
0.535851
1.05046
1.57555
2.11067
2.64643
3.15945
3.61045
3.92849
3.92978
3.43486
-4.17748
-4.60039
-4.37987
-3.81687
-3.15678
-2.4807
-1.82283
-1.19619
-0.59835
-0.0184784
0.557831
1.14586
1.75962
2.40907
3.09505
3.80198
4.49208
5.07953
5.3126
4.88571
-6.34325
-6.48581
-5.81651
-4.83466
-3.84764
-2.93386
-2.11034
-1.37033
-0.693365
-0.0534199
0.577023
1.22568
1.91984
2.68494
3.54034
4.49079
5.51596
6.53203
7.22415
7.08733
-9.75189
-9.07984
-7.56454
-5.94265
-4.51408
-3.31586
-2.31973
-1.47909
-0.744424
-0.069282
0.589452
1.27359
2.02616
2.89336
3.92417
5.16414
6.63916
8.30659
9.85896
10.5558
-15.5433
-12.6188
-9.51837
-6.98635
-5.0174
-3.52005
-2.37792
-1.47716
-0.727283
-0.058337
0.58793
1.26605
2.03431
2.96264
4.14154
5.68496
7.70865
10.2996
13.4578
16.4393
-26.6989
-17.2351
-10.9792
-7.32484
-4.90992
-3.25999
-2.11102
-1.26489
-0.591702
-0.00635559
0.554948
1.14983
1.84212
2.71702
3.90465
5.60432
8.08266
11.8138
18.1588
27.7254
-45.35
-21.7257
-10.5196
-6.01121
-3.66546
-2.26807
-1.38775
-0.779805
-0.311082
0.0921293
0.479133
0.892767
1.38229
2.02122
2.94239
4.39197
6.8087
11.4143
22.7344
46.4739
)
;

boundaryField
{
    top
    {
        type            zeroGradient;
    }
    left
    {
        type            zeroGradient;
    }
    right
    {
        type            zeroGradient;
    }
    bottom
    {
        type            zeroGradient;
    }
    back0
    {
        type            empty;
    }
    front1
    {
        type            empty;
    }
}


// ************************************************************************* //
