/*--------------------------------*- C++ -*----------------------------------*\
| =========                 |                                                 |
| \\      /  F ield         | OpenFOAM: The Open Source CFD Toolbox           |
|  \\    /   O peration     | Version:  3.0.1                                 |
|   \\  /    A nd           | Web:      www.OpenFOAM.org                      |
|    \\/     M anipulation  |                                                 |
\*---------------------------------------------------------------------------*/
FoamFile
{
    version     2.0;
    format      ascii;
    class       volScalarField;
    location    "6";
    object      p;
}
// * * * * * * * * * * * * * * * * * * * * * * * * * * * * * * * * * * * * * //

dimensions      [0 2 -2 0 0 0 0];

internalField   nonuniform List<scalar> 
400
(
8.95095476e-06
-0.0581863612
-0.130476602
-0.186317376
-0.207278266
-0.185033844
-0.118955795
-0.013954693
0.121286427
0.275650633
0.436638693
0.591269842
0.726945889
0.832387475
0.898746723
0.921013391
0.899830439
0.843660911
0.77114636
0.712959113
0.057658364
-0.00212451326
-0.0588210362
-0.0973481975
-0.108544321
-0.0865577866
-0.0306439849
0.0556469766
0.16572492
0.290938737
0.421417571
0.546859351
0.657310046
0.743981698
0.800144346
0.822161307
0.810784052
0.771973776
0.715082838
0.655341175
0.134131306
0.0513256137
-0.0100451901
-0.0456375602
-0.0547728718
-0.0342091201
0.0159895861
0.0923698883
0.18913942
0.298872898
0.413136887
0.523128216
0.620323505
0.697147794
0.747651949
0.768278531
0.758957157
0.723037409
0.661415734
0.57864128
0.20480388
0.0902362525
0.0138826529
-0.0267339959
-0.0378610366
-0.0185620711
0.029889284
0.103395481
0.196105072
0.300942182
0.41004067
0.515226003
0.608520015
0.682657246
0.731580243
0.75104141
0.739732826
0.698701379
0.621965048
0.50733984
0.253500416
0.105267839
0.0109366659
-0.0368478228
-0.0502563868
-0.0304059904
0.0200851257
0.096134839
0.19140003
0.298691422
0.410241081
0.518030702
0.614148074
0.691154891
0.742426013
0.762653702
0.749132564
0.700846231
0.605934146
0.457440975
0.268636025
0.0859349887
-0.0271862656
-0.0819179247
-0.095854531
-0.0720811411
-0.0147076899
0.0699269865
0.174664509
0.291866799
0.413529778
0.531455655
0.637453697
0.723556956
0.78221891
0.806763025
0.792904404
0.737623336
0.62365939
0.440335738
0.240183969
0.021837081
-0.10979815
-0.169462901
-0.180316104
-0.147601779
-0.0771845361
0.0230527538
0.144871122
0.279951712
0.419846397
0.555975427
0.679650561
0.782121195
0.854618511
0.888764044
0.878382769
0.818219584
0.685428667
0.465888169
0.1573718
-0.0984723834
-0.247343379
-0.307991573
-0.310044708
-0.261465875
-0.170312274
-0.046340295
0.100925516
0.262379315
0.429081074
0.592037226
0.742002781
0.869312564
0.963729924
1.01478894
1.01392295
0.953018402
0.802662269
0.544799847
0.00681261271
-0.289047146
-0.45256993
-0.507814224
-0.492716754
-0.418987252
-0.297529971
-0.140350327
0.0416180246
0.238536272
0.441125146
0.640158852
0.825978835
0.988036706
1.11446266
1.19226331
1.20974433
1.15481473
0.989533446
0.690552955
-0.229317962
-0.568125504
-0.741503055
-0.78138804
-0.737165923
-0.625918868
-0.462282639
-0.260891096
-0.0340632128
0.207913821
0.455842996
0.700729561
0.93291935
1.14125189
1.3122135
1.42983785
1.47832095
1.43984348
1.26462025
0.921330383
-0.57573514
-0.960196998
-1.13454947
-1.14348088
-1.05291689
-0.887677503
-0.66718766
-0.408968866
-0.12641982
0.170357325
0.473038701
0.773700698
1.06349228
1.33128068
1.5622011
1.73700238
1.83460965
1.82895142
1.6530644
1.26259695
-1.06817927
-1.4991061
-1.65784815
-1.61107278
-1.44924988
-1.20808635
-0.912801061
-0.58366877
-0.234344404
0.126410444
0.492430526
0.858189871
1.21695105
1.55880332
1.86838325
2.12327493
2.2960403
2.34902706
2.18978312
1.75140134
-1.76128864
-2.23296309
-2.34474088
-2.20256249
-1.93335645
-1.58730081
-1.19577452
-0.78074373
-0.354396499
0.0777515693
0.513601243
0.951931137
1.39007018
1.82131624
2.23162304
2.59653081
2.88183844
3.03455767
2.92449899
2.44447438
-2.74490078
-3.23206213
-3.2365573
-2.93506394
-2.50659248
-2.0182841
-1.50607957
-0.990687357
-0.479646509
0.027677425
0.535851118
1.05045733
1.57555273
2.11066942
2.6464297
3.15945128
3.6104468
3.92849391
3.92978113
3.4348561
-4.17748326
-4.60039099
-4.37987084
-3.81686929
-3.15677727
-2.48070331
-1.82283133
-1.19619159
-0.59835039
-0.0184783659
0.557831474
1.14585919
1.75962409
2.40907189
3.09504588
3.80197511
4.49207756
5.07953356
5.31260083
4.885714
-6.34324613
-6.48581248
-5.81651339
-4.8346642
-3.84763551
-2.93385706
-2.11034206
-1.37033296
-0.693364932
-0.0534198938
0.577023322
1.22567954
1.91983731
2.68494225
3.5403358
4.49079044
5.51596404
6.53202864
7.22414538
7.08733332
-9.75188995
-9.07983847
-7.56453907
-5.94265296
-4.51408156
-3.31585921
-2.31972569
-1.47909089
-0.744424405
-0.069281979
0.589452499
1.27359115
2.02616236
2.89335955
3.92416896
5.16414116
6.63915889
8.30658899
9.85895638
10.5557691
-15.5433377
-12.6187612
-9.51836585
-6.98635366
-5.01740258
-3.52005272
-2.37791967
-1.47716263
-0.727283475
-0.0583369654
0.587930389
1.26605467
2.03430727
2.96263972
4.14154267
5.68496
7.70864585
10.2996095
13.4578289
16.4393209
-26.6989435
-17.2351103
-10.979209
-7.32483702
-4.9099177
-3.25998884
-2.11101985
-1.26488617
-0.591701842
-0.00635558791
0.554947932
1.14982824
1.84212287
2.71702426
3.90464569
5.60431511
8.0826579
11.8138245
18.1587839
27.7253751
-45.3500394
-21.7256866
-10.5196269
-6.01120673
-3.66545616
-2.26806688
-1.38775467
-0.779805318
-0.311082267
0.0921292674
0.479133037
0.89276664
1.38228608
2.02121795
2.94238916
4.39196896
6.80870145
11.4142637
22.7343602
46.4738999
)
;

boundaryField
{
    top
    {
        type            zeroGradient;
    }
    left
    {
        type            zeroGradient;
    }
    right
    {
        type            zeroGradient;
    }
    bottom
    {
        type            zeroGradient;
    }
    back0
    {
        type            empty;
    }
    front1
    {
        type            empty;
    }
}


// ************************************************************************* //
