/*--------------------------------*- C++ -*----------------------------------*\
| =========                 |                                                 |
| \\      /  F ield         | OpenFOAM: The Open Source CFD Toolbox           |
|  \\    /   O peration     | Version:  3.0.1                                 |
|   \\  /    A nd           | Web:      www.OpenFOAM.org                      |
|    \\/     M anipulation  |                                                 |
\*---------------------------------------------------------------------------*/
FoamFile
{
    version     2.0;
    format      ascii;
    class       surfaceScalarField;
    location    "6";
    object      phi;
}
// * * * * * * * * * * * * * * * * * * * * * * * * * * * * * * * * * * * * * //

dimensions      [0 3 -1 0 0 0 0];

internalField   nonuniform List<scalar> 
760
(
1.4832927e-05
-1.4840769e-05
-2.06673098e-05
3.55002476e-05
-0.000112521033
9.1853757e-05
-0.000244614305
0.000132093284
-0.000396819996
0.000152205663
-0.000549709495
0.000152889447
-0.000686467047
0.000136757522
-0.000793771919
0.000107304906
-0.000862077002
6.83051838e-05
-0.000885638132
2.35612457e-05
-0.00086248925
-2.31488219e-05
-0.000794446419
-6.80428682e-05
-0.000687159207
-0.000107287326
-0.000550173399
-0.000136985922
-0.000396907764
-0.000153265669
-0.000244342461
-0.00015256522
-0.000112068747
-0.000132273548
-2.02875676e-05
-9.17810165e-05
1.49801779e-05
-3.52676792e-05
1.49801032e-05
-3.2795202e-05
1.79544358e-05
-0.00017727191
0.000179976938
-0.000430661632
0.000345243495
-0.000762838024
0.000464269724
-0.00113361776
0.000522985465
-0.00150161756
0.000520889313
-0.00182937261
0.000464512592
-0.00208620199
0.000364134273
-0.00224961337
0.000231716524
-0.00230590194
7.98497932e-05
-0.00225037855
-7.86721714e-05
-0.00208745819
-0.000230963152
-0.00183067139
-0.000364074038
-0.0015025044
-0.000465152847
-0.0011338115
-0.000521958559
-0.000762352256
-0.00052402448
-0.000429806207
-0.000464819637
-0.000176504886
-0.0003450824
-3.24528839e-05
-0.000179319795
-1.74727233e-05
-9.02047947e-05
0.000108159267
-0.000352894622
0.000442666754
-0.000760600819
0.000752949708
-0.00126723947
0.000970908405
-0.00181761835
0.00107336438
-0.00235581888
0.00105908987
-0.00283112923
0.000939822953
-0.00320177447
0.000734779513
-0.00343696488
0.000466906934
-0.0035178766
0.000160761534
-0.00343806476
-0.00015848397
-0.0032036124
-0.000465415453
-0.00283310482
-0.000734581569
-0.00235730385
-0.000940953802
-0.0018181888
-0.00106107362
-0.00126684685
-0.00107536642
-0.000759602303
-0.000972064164
-0.000351894529
-0.000752790143
-8.97162422e-05
-0.000441498112
-0.000107188834
-0.000142725231
0.000250884546
-0.000521155516
0.000821097046
-0.00107877711
0.00131057133
-0.0017492702
0.00164140152
-0.00246204209
0.0017861363
-0.0031489579
0.0017460057
-0.00374966725
0.00154053232
-0.00421508515
0.00120019742
-0.00450930178
0.000761123557
-0.00461045077
0.000261910543
-0.00451103987
-0.000257894825
-0.00421807557
-0.000758379704
-0.0037530848
-0.00119957229
-0.00315189489
-0.00154214369
-0.00246380707
-0.00174916145
-0.00174963511
-0.00178953839
-0.00107807153
-0.00164362774
-0.000520127032
-0.00131073462
-0.00014213699
-0.000819488158
-0.000249325692
-0.000191108215
0.000441992782
-0.000682218977
0.00131220785
-0.00138731992
0.0020156723
-0.00221710326
0.00247118488
-0.00308417121
0.00265320427
-0.00390865245
0.00257048697
-0.0046224042
0.00225428409
-0.00517146442
0.00174925766
-0.00551708671
0.00110674585
-0.00563593999
0.000380763832
-0.00552002233
-0.000373812465
-0.00517665218
-0.00110174982
-0.00462865292
-0.00174757151
-0.003914582
-0.00225621457
-0.00308860635
-0.00257513708
-0.00221943924
-0.00265870551
-0.00138772973
-0.00247533727
-0.000681573852
-0.0020168905
-0.000190525863
-0.00131053615
-0.00043985149
-0.000238304942
0.000680297695
-0.000842095509
0.00191599849
-0.00169514005
0.00286871688
-0.00268291751
0.00345896237
-0.00369984138
0.00367012817
-0.0046544542
0.00352509981
-0.00547225721
0.00307208712
-0.00609649809
0.00237349857
-0.00648763921
0.00149788698
-0.00662232783
0.00051545246
-0.00649254234
-0.000503597943
-0.00610533292
-0.00148895922
-0.00548329044
-0.00236961395
-0.00466558459
-0.00307392037
-0.00370911773
-0.0035316039
-0.00268907209
-0.00367875112
-0.00169797541
-0.00346643395
-0.000842533643
-0.00287233229
-0.000237931464
-0.00191513832
-0.000677782979
-0.000287378034
0.000967675663
-0.00100782309
0.00263644361
-0.00201201731
0.00387291114
-0.00315754805
0.00460449314
-0.00431950063
0.00483208077
-0.00539549624
0.00460109545
-0.00630668162
0.00398327252
-0.00699609466
0.00306291163
-0.00742581835
0.00192761069
-0.00757414377
0.000663777888
-0.00743359653
-0.000644145172
-0.00701030764
-0.0019122481
-0.0063248809
-0.00305504068
-0.00541459509
-0.00398420615
-0.00433643095
-0.00460976799
-0.00317000745
-0.00484517459
-0.00201911823
-0.00461732313
-0.00101037791
-0.00388107259
-0.000287535558
-0.00263798064
-0.000965318621
-0.000341212417
0.00130888803
-0.00118606902
0.00348130025
-0.00234617501
0.00503301715
-0.0036474986
0.00590581675
-0.00494510454
0.00612968675
-0.00612756522
0.00578355616
-0.00711505501
0.00497076235
-0.00785418324
0.00380203989
-0.00831193764
0.00238536511
-0.00847043726
0.000822277532
-0.00832350486
-0.000791077565
-0.00787555482
-0.00236019814
-0.00714295018
-0.0037876453
-0.00615769345
-0.00496946286
-0.00497294309
-0.00579451832
-0.00366927811
-0.00614883953
-0.00235988191
-0.00592671927
-0.00119212026
-0.00504883419
-0.000342355944
-0.00348774491
-0.00130767464
-0.000402662283
0.00171155032
-0.00138288337
0.00446152133
-0.00270314659
0.00635328036
-0.00415277714
0.0073554473
-0.00556708752
0.00754399715
-0.00682952863
0.0070459973
-0.00786487592
0.00600610967
-0.00862888995
0.00456605396
-0.0090979842
0.00285445939
-0.00926099491
0.000985288271
-0.00911404282
-0.000938029642
-0.00865885394
-0.00281538701
-0.00790464516
-0.00454185407
-0.00687353016
-0.00600057785
-0.0056091003
-0.00705894817
-0.00418713261
-0.00757080718
-0.00272616155
-0.00738769028
-0.00139412415
-0.00638087153
-0.000405385211
-0.0044764838
-0.00171305988
-0.000475110572
0.00218666099
-0.00160423012
0.00559064084
-0.00308522736
0.0078342776
-0.0046646899
0.00893490984
-0.00616057362
0.00903988087
-0.00745844188
0.00834386559
-0.00849632086
0.00704398869
-0.00924694434
0.00531667747
-0.00970204039
0.00330955547
-0.00986075416
0.00114400207
-0.00972275498
-0.0010760288
-0.00928598319
-0.00325215879
-0.00854900045
-0.0052788368
-0.00751809688
-0.00703148142
-0.006219277
-0.00835776804
-0.0047145578
-0.00907552637
-0.00312030248
-0.00898194557
-0.00162255976
-0.0078786142
-0.000480136703
-0.00561890681
-0.00219319653
-0.000563483753
0.00275014486
-0.00185696103
0.00688411809
-0.00349063225
0.00946794882
-0.00516238888
0.0106066665
-0.00667966504
0.010557157
-0.00794251195
0.0096067125
-0.00891480742
0.00801628418
-0.00959640985
0.00599827993
-0.0100013149
0.00371446054
-0.0101429408
0.00128562806
-0.0100258835
-0.00119308608
-0.0096432405
-0.00363480179
-0.00897918596
-0.00594289132
-0.00801728994
-0.00799337742
-0.00675563257
-0.00961942539
-0.00522944104
-0.0106017179
-0.00353999245
-0.0106713942
-0.00188425653
-0.00953435011
-0.000571636338
-0.006931527
-0.00276483279
-0.00067594843
0.00342609338
-0.0021498275
0.00835799719
-0.00391097497
0.0112290963
-0.00560625116
0.0123019427
-0.00704802713
0.011998933
-0.00817076075
0.0107294461
-0.00898119894
0.00882672237
-0.00951808187
0.00653516288
-0.0098246047
0.0040209834
-0.00993193723
0.00139296062
-0.00985079027
-0.00127423301
-0.00956873125
-0.00391686079
-0.00905248802
-0.00645913452
-0.00825621161
-0.00878965381
-0.00713822161
-0.0107374154
-0.00568945425
-0.0120504852
-0.00397535304
-0.0123854954
-0.00218751968
-0.0113221835
-0.000688081177
-0.00843096551
-0.0034529139
-0.000826648633
0.004252742
-0.00249342107
0.0100247697
-0.00432418436
0.0130598597
-0.00592459563
0.013902354
-0.00714291344
0.0132172508
-0.00797782154
0.0115643542
-0.0084994333
0.00934833413
-0.00879640142
0.00683213101
-0.00894570099
0.00417028299
-0.0089976469
0.00144490656
-0.00896948446
-0.00130239541
-0.00884345465
-0.00404289056
-0.00856804086
-0.00673454829
-0.00806387612
-0.00929381854
-0.00723867594
-0.0115626155
-0.00601823939
-0.0132709218
-0.00440132835
-0.0140024064
-0.00254175599
-0.0131817558
-0.000843508791
-0.0101292127
-0.00429642267
-0.00103952332
0.00529226523
-0.00289549019
0.0118807366
-0.00467633796
0.0148407075
-0.0059872013
0.0152132174
-0.00676819866
0.0139982483
-0.00712210002
0.0119182556
-0.00720203285
0.00942826695
-0.00715181602
0.00678191417
-0.00708046879
0.00409893576
-0.00705437514
0.00141881294
-0.00709612696
-0.00126064357
-0.00718439484
-0.00395462265
-0.00725315075
-0.00666579235
-0.0071919898
-0.00935497946
-0.00685341916
-0.0119011861
-0.00607860055
-0.0140457404
-0.00475889044
-0.0153221165
-0.00295227291
-0.0149883734
-0.00106146519
-0.0120200204
-0.00535788789
-0.00135025167
0.00664251679
-0.00334025609
0.0138707411
-0.00483768105
0.0163381325
-0.00555404828
0.0159295847
-0.00561056918
0.0140547692
-0.00525650319
0.0115641896
-0.00473591666
0.00890768045
-0.00423859808
0.0062845956
-0.00389222403
0.00375256171
-0.00376902859
0.0012956175
-0.0038932728
-0.00113639933
-0.00424393225
-0.00360396316
-0.00475113522
-0.00615858935
-0.00528768989
-0.00881842477
-0.00566131395
-0.0115275621
-0.00562172845
-0.0140853258
-0.00491056655
-0.0160332784
-0.00339873242
-0.0165002075
-0.00137654973
-0.0140422031
-0.00673443765
-0.00179037816
0.0084328949
-0.00371836137
0.0157987243
-0.00450183542
0.0171216066
-0.00418179656
0.0156095458
-0.00317451654
0.0130474892
-0.00189546702
0.0102851402
-0.000655569757
0.00766778323
0.000344295317
0.00528473055
0.000987448083
0.00310940895
0.00121450026
0.00106856532
0.00100600295
-0.000927902007
0.000376740814
-0.00297470101
-0.000618094069
-0.00516375444
-0.00186474335
-0.00757177546
-0.0031625688
-0.0102297366
-0.00419629311
-0.0130516015
-0.00454020593
-0.0156893655
-0.00376394183
-0.0172764715
-0.00181751154
-0.0159886333
-0.0085519492
-0.0023076427
0.0107405377
-0.00363211767
0.0171231993
-0.00297442393
0.0164639128
-0.00106889377
0.0137040156
0.00129962229
0.0106789732
0.0036081767
0.00797658582
0.00556237799
0.005713582
0.00701811543
0.00382899317
0.00791404665
0.00221347776
0.00822761937
0.000754992592
0.0079521283
-0.000652410937
0.0070896486
-0.00211222131
0.00565786604
-0.00373197186
0.00371317397
-0.00562708336
0.00139571619
-0.00791227877
-0.00100056611
-0.0106553192
-0.00294595431
-0.0137439773
-0.00363940842
-0.0165830174
-0.00232572288
-0.0173023188
-0.0108776721
-0.00251428301
0.0132548208
-0.00191886161
0.0165277778
0.00123204956
0.0133130016
0.00516960704
0.00976645815
0.0089099522
0.00693862799
0.0120477008
0.00483883724
0.0144621919
0.00329909094
0.0161533072
0.00213787793
0.0171566123
0.00121017274
0.0175035783
0.000408026638
0.017205308
-0.000354140673
0.0162480109
-0.00115492418
0.0145966908
-0.00208065178
0.012210738
-0.00324113052
0.00908363902
-0.00478517977
0.00532950021
-0.00690118034
0.00135184665
-0.00976632371
-0.00185633294
-0.0133748378
-0.00250263361
-0.0166560181
-0.0133803056
-0.000525870516
0.0137806914
0.00469116543
0.0113107418
0.0111379058
0.00686626125
0.0167191968
0.00418516708
0.0210437613
0.0026140635
0.0242217883
0.00166081026
0.0264601189
0.00106076039
0.0279395592
0.000658437666
0.0287868703
0.000362861742
0.0290749923
0.000119904631
0.0288276842
-0.000106832642
0.0280213581
-0.000348598083
0.026582498
-0.000641791657
0.0243820565
-0.00104068897
0.0212339726
-0.00163709579
0.0169223245
-0.00258953219
0.0113261641
-0.00417016328
0.0048312408
-0.0068799145
-0.000460418968
-0.0113643584
-0.0138407246
0.0137806915
0.0250914334
0.0319576947
0.0361428619
0.0387569254
0.0404177355
0.0414784959
0.0421369335
0.0424997953
0.0426197
0.0425128674
0.0421642694
0.0415224777
0.0404817887
0.0388446929
0.0362551607
0.0320849974
0.025205083
0.0138407246
)
;

boundaryField
{
    top
    {
        type            calculated;
        value           uniform 0;
    }
    left
    {
        type            calculated;
        value           uniform 0;
    }
    right
    {
        type            calculated;
        value           uniform 0;
    }
    bottom
    {
        type            calculated;
        value           uniform 0;
    }
    back0
    {
        type            empty;
        value           nonuniform 0();
    }
    front1
    {
        type            empty;
        value           nonuniform 0();
    }
}


// ************************************************************************* //
