/*--------------------------------*- C++ -*----------------------------------*\
| =========                 |                                                 |
| \\      /  F ield         | OpenFOAM: The Open Source CFD Toolbox           |
|  \\    /   O peration     | Version:  3.0.1                                 |
|   \\  /    A nd           | Web:      www.OpenFOAM.org                      |
|    \\/     M anipulation  |                                                 |
\*---------------------------------------------------------------------------*/
FoamFile
{
    version     2.0;
    format      ascii;
    class       volVectorField;
    location    "6";
    object      U;
}
// * * * * * * * * * * * * * * * * * * * * * * * * * * * * * * * * * * * * * //

dimensions      [0 1 -1 0 0 0 0];

internalField   nonuniform List<vector> 
400
(
(0.000259080775 -0.000255083262 0)
(0.000163241544 0.00010350613 0)
(-0.00114127073 0.000562928551 0)
(-0.00345162858 0.000892680224 0)
(-0.00637456187 0.00105975787 0)
(-0.00950137946 0.00107586005 0)
(-0.0124624488 0.00096576361 0)
(-0.0149528214 0.000758487934 0)
(-0.0167424756 0.000482989309 0)
(-0.0176781141 0.00016694031 0)
(-0.0176825134 -0.000162991695 0)
(-0.0167540714 -0.000480344039 0)
(-0.0149673935 -0.000757971683 0)
(-0.0124747388 -0.000967396533 0)
(-0.00950714729 -0.00107880211 0)
(-0.00637237804 -0.00106259196 0)
(-0.00344362653 -0.000894003555 0)
(-0.00113223449 -0.00056211931 0)
(0.000168792541 -0.000101408634 0)
(0.000260558906 0.000256260836 0)
(-6.36384426e-05 -0.000192767482 0)
(-0.00156376037 0.00161125907 0)
(-0.00562130666 0.00360996598 0)
(-0.0116624073 0.0050651823 0)
(-0.0188876836 0.0057989313 0)
(-0.0264616804 0.00581606177 0)
(-0.0335808343 0.00520264853 0)
(-0.0395528827 0.00408408511 0)
(-0.0438411298 0.00260080466 0)
(-0.0460817149 0.000897209351 0)
(-0.0460899775 -0.000881781007 0)
(-0.0438629548 -0.00259069805 0)
(-0.0395804505 -0.00408266178 0)
(-0.0336043444 -0.00520997461 0)
(-0.0264731029 -0.00582870202 0)
(-0.0188840535 -0.0058111198 0)
(-0.0116472914 -0.00507121943 0)
(-0.0056033968 -0.00360722951 0)
(-0.00155190574 -0.00160273264 0)
(-6.01297598e-05 0.000198536278 0)
(-0.000508060469 0.00103302676 0)
(-0.00364515703 0.00566231882 0)
(-0.0104977717 0.010212075 0)
(-0.0199305024 0.0134777877 0)
(-0.0307793386 0.015069852 0)
(-0.041924995 0.01496061 0)
(-0.0522861769 0.0133219632 0)
(-0.0609227905 0.0104364104 0)
(-0.0671017812 0.00663926715 0)
(-0.0703241063 0.00228747752 0)
(-0.0703359394 -0.00225413327 0)
(-0.0671333812 -0.00661751891 0)
(-0.0609637724 -0.0104336451 0)
(-0.0523232391 -0.0133384723 0)
(-0.0419466812 -0.0149890934 0)
(-0.0307804307 -0.0150978448 0)
(-0.0199143777 -0.0134927131 0)
(-0.0104753172 -0.0102076257 0)
(-0.00362889266 -0.00564388659 0)
(-0.000502880463 -0.0010187938 0)
(-0.000901528899 0.00337414678 0)
(-0.00561471623 0.0121027116 0)
(-0.0152160233 0.0199185745 0)
(-0.0278960175 0.0253348641 0)
(-0.0420806432 0.0278175241 0)
(-0.0563930806 0.027345423 0)
(-0.0695396262 0.0242145225 0)
(-0.0804104929 0.0189084553 0)
(-0.0881486897 0.0120071496 0)
(-0.0921742187 0.00413332956 0)
(-0.0921927221 -0.00407342777 0)
(-0.0881990102 -0.0119670899 0)
(-0.0804786043 -0.0189011756 0)
(-0.0696069294 -0.0242412157 0)
(-0.0564423192 -0.0273944616 0)
(-0.042101789 -0.0278680894 0)
(-0.0278901583 -0.025364989 0)
(-0.0151953172 -0.0199157332 0)
(-0.00559611468 -0.0120735471 0)
(-0.000894871586 -0.00334870553 0)
(-0.00124878125 0.00671914274 0)
(-0.00746753578 0.0208066957 0)
(-0.0197752611 0.0325561698 0)
(-0.0356414751 0.0403583136 0)
(-0.0530356742 0.0436522751 0)
(-0.0703148103 0.0425094316 0)
(-0.0859995251 0.0374148003 0)
(-0.098856999 0.0291035723 0)
(-0.107956646 0.0184400411 0)
(-0.112678274 0.0063446783 0)
(-0.112709212 -0.00624106314 0)
(-0.108042231 -0.0183675565 0)
(-0.0989773681 -0.0290832532 0)
(-0.0861273423 -0.0374502581 0)
(-0.070422765 -0.0425846816 0)
(-0.0531045805 -0.0437362437 0)
(-0.0356666367 -0.0404160449 0)
(-0.0197684298 -0.0325645948 0)
(-0.00745105765 -0.0207705735 0)
(-0.00124127109 -0.00668126112 0)
(-0.00158017482 0.0110106951 0)
(-0.00929263528 0.0317466171 0)
(-0.0243212555 0.0481289197 0)
(-0.0433743915 0.0585360715 0)
(-0.0639230271 0.062511274 0)
(-0.0840449413 0.060335136 0)
(-0.10209361 0.0527734093 0)
(-0.116751939 0.0408774787 0)
(-0.127060247 0.0258362139 0)
(-0.132395296 0.00888910348 0)
(-0.132446581 -0.00871105841 0)
(-0.127203921 -0.0257054022 0)
(-0.116959603 -0.0408271924 0)
(-0.10232485 -0.0528124352 0)
(-0.0842568065 -0.0604436734 0)
(-0.0640811225 -0.0626456925 0)
(-0.0434628882 -0.0586432848 0)
(-0.0243482613 -0.048168441 0)
(-0.00928636239 -0.031715167 0)
(-0.00157322868 -0.0109621118 0)
(-0.00192625739 0.0162550696 0)
(-0.0111929018 0.0449648588 0)
(-0.0290279027 0.0666850306 0)
(-0.0513080628 0.0798756021 0)
(-0.0749610846 0.0843338746 0)
(-0.097782287 0.0806969686 0)
(-0.117988295 0.0701286182 0)
(-0.134227477 0.0540740418 0)
(-0.145564318 0.0340861051 0)
(-0.151415616 0.0117325376 0)
(-0.151496512 -0.0114321729 0)
(-0.145793049 -0.0338557618 0)
(-0.134564566 -0.0539652666 0)
(-0.118375865 -0.0701597855 0)
(-0.0981555738 -0.080846139 0)
(-0.0752630712 -0.0845426776 0)
(-0.051504383 -0.0800662923 0)
(-0.0291175757 -0.0667897446 0)
(-0.0112092909 -0.0449617388 0)
(-0.00192231715 -0.0162027101 0)
(-0.00231586513 0.0225188857 0)
(-0.0132686116 0.0605807171 0)
(-0.0340569775 0.0883110873 0)
(-0.0596048725 0.104368561 0)
(-0.0862453031 0.108997333 0)
(-0.111508522 0.10338006 0)
(-0.13353311 0.0892237768 0)
(-0.151009562 0.0684555373 0)
(-0.163100856 0.0430258831 0)
(-0.169320775 0.0148224114 0)
(-0.169440507 -0.0143329549 0)
(-0.163441907 -0.0426373988 0)
(-0.151519879 -0.0682455387 0)
(-0.13413415 -0.0892266205 0)
(-0.112108177 -0.103575265 0)
(-0.0867560061 -0.109310715 0)
(-0.0599644099 -0.104690503 0)
(-0.0342470577 -0.0885331248 0)
(-0.0133249276 -0.0606460652 0)
(-0.00231859234 -0.0224774399 0)
(-0.00277919414 0.0299257497 0)
(-0.0156192279 0.0787852766 0)
(-0.0395457669 0.113109753 0)
(-0.0683430248 0.131941964 0)
(-0.0976948771 0.136245346 0)
(-0.124920473 0.127998141 0)
(-0.148185639 0.109628248 0)
(-0.166341063 0.0836380194 0)
(-0.178753043 0.0523950457 0)
(-0.18510833 0.0180718699 0)
(-0.185273806 -0.0173092999 0)
(-0.179227541 -0.0517729597 0)
(-0.167060689 -0.0832686526 0)
(-0.149050932 -0.109570383 0)
(-0.125809067 -0.128239198 0)
(-0.0984818564 -0.136696932 0)
(-0.0689278816 -0.132456229 0)
(-0.0398814813 -0.113521708 0)
(-0.0157375866 -0.0789798379 0)
(-0.0027936535 -0.0299204525 0)
(-0.00335558822 0.0386598281 0)
(-0.01835899 0.099828628 0)
(-0.0456106445 0.141148999 0)
(-0.077489839 0.162368225 0)
(-0.108990998 0.165574068 0)
(-0.137340476 0.153875605 0)
(-0.160905739 0.130632497 0)
(-0.178870102 0.0990104279 0)
(-0.190943377 0.0617852149 0)
(-0.197080758 0.0213406276 0)
(-0.197293192 -0.0202106609 0)
(-0.19155667 -0.0608422166 0)
(-0.179812906 -0.0984096849 0)
(-0.162062653 -0.130467247 0)
(-0.138561434 -0.154151346 0)
(-0.110110873 -0.166194666 0)
(-0.0783600723 -0.16314486 0)
(-0.0461409179 -0.141843441 0)
(-0.018565754 -0.100236641 0)
(-0.0033884071 -0.0387292548 0)
(-0.00410769341 0.0489852947 0)
(-0.0216450018 0.124008521 0)
(-0.052354203 0.172385468 0)
(-0.0868591278 0.195134292 0)
(-0.11948131 0.196079168 0)
(-0.14758389 0.179902913 0)
(-0.170007081 0.151130525 0)
(-0.186501475 0.113650953 0)
(-0.197291781 0.0705900827 0)
(-0.20270879 0.0244160573 0)
(-0.202959321 -0.02282873 0)
(-0.198020702 -0.0692386197 0)
(-0.18763934 -0.112739121 0)
(-0.171435195 -0.150796261 0)
(-0.149136085 -0.180184112 0)
(-0.120957503 -0.196885876 0)
(-0.0880571991 -0.196241898 0)
(-0.0531240557 -0.173469175 0)
(-0.0219690714 -0.124737851 0)
(-0.00416716354 -0.0491838302 0)
(-0.00514672276 0.0612936572 0)
(-0.0257192211 0.151656871 0)
(-0.059857334 0.206540864 0)
(-0.0960163553 0.229247357 0)
(-0.128010537 0.22625206 0)
(-0.153752936 0.204366558 0)
(-0.17295078 0.169499915 0)
(-0.186211836 0.1262537 0)
(-0.194456679 0.077966836 0)
(-0.198488976 0.0269985749 0)
(-0.198753976 -0.0248921057 0)
(-0.195235526 -0.0761392898 0)
(-0.187451783 -0.124956373 0)
(-0.174551719 -0.168923188 0)
(-0.15555665 -0.204598298 0)
(-0.129800732 -0.22723206 0)
(-0.0975421256 -0.230734026 0)
(-0.0608943015 -0.208120368 0)
(-0.026188441 -0.152833974 0)
(-0.00524278139 -0.061693099 0)
(-0.00667695562 0.0761991922 0)
(-0.0309618125 0.183102318 0)
(-0.0681131767 0.24288129 0)
(-0.104061122 0.262937311 0)
(-0.132609117 0.253713734 0)
(-0.152911311 0.224767307 0)
(-0.166064266 0.183506303 0)
(-0.173836892 0.135093401 0)
(-0.177984692 0.0828291906 0)
(-0.179830227 0.0286992457 0)
(-0.180068015 -0.0260728416 0)
(-0.178694669 -0.0805072224 0)
(-0.175001629 -0.133363403 0)
(-0.167632218 -0.182612027 0)
(-0.154769958 -0.224863999 0)
(-0.134563332 -0.254804107 0)
(-0.105835095 -0.264801054 0)
(-0.069404589 -0.245035403 0)
(-0.0315960008 -0.184858166 0)
(-0.00682084504 -0.0768885788 0)
(-0.00906576275 0.0947026414 0)
(-0.037924644 0.218538327 0)
(-0.0767913856 0.279804171 0)
(-0.109143736 0.293208676 0)
(-0.12992473 0.274900171 0)
(-0.140578598 0.237679783 0)
(-0.144175978 0.190296535 0)
(-0.143858217 0.138083667 0)
(-0.142218389 0.0839087308 0)
(-0.141028904 0.0290636827 0)
(-0.141180993 -0.026014546 0)
(-0.142689439 -0.0811589683 0)
(-0.14468343 -0.135932439 0)
(-0.14538399 -0.189029523 0)
(-0.142149468 -0.23752964 0)
(-0.131741767 -0.275969882 0)
(-0.110959041 -0.295359028 0)
(-0.0782481875 -0.282539181 0)
(-0.0387218164 -0.220978845 0)
(-0.00926852193 -0.095783972 0)
(-0.012906496 0.118408541 0)
(-0.0471896989 0.257615169 0)
(-0.0845412813 0.314085572 0)
(-0.107433027 0.315236807 0)
(-0.114222049 0.284803044 0)
(-0.109987081 0.238796066 0)
(-0.100191609 0.186611104 0)
(-0.0892602681 0.133024635 0)
(-0.0803513373 0.0799415593 0)
(-0.0754276646 0.0276432377 0)
(-0.0754289755 -0.0243954535 0)
(-0.080389554 -0.0769480831 0)
(-0.0894298951 -0.130558966 0)
(-0.100620784 -0.184972278 0)
(-0.110789496 -0.238285714 0)
(-0.11542694 -0.285651538 0)
(-0.108905906 -0.31745834 0)
(-0.0859441541 -0.317272946 0)
(-0.0480970329 -0.260766776 0)
(-0.0131729816 -0.119982479 0)
(-0.0188565021 0.149839412 0)
(-0.0584939888 0.298411263 0)
(-0.0871238267 0.339552566 0)
(-0.0910298033 0.321660365 0)
(-0.075751963 0.276980957 0)
(-0.0511223714 0.223384752 0)
(-0.0247385425 0.169390593 0)
(-0.00161211377 0.118146572 0)
(0.015221433 0.0700342552 0)
(0.0241045296 0.0241323079 0)
(0.0243023017 -0.0210356821 0)
(0.0157673079 -0.0671084027 0)
(-0.000856605657 -0.115596929 0)
(-0.023988004 -0.167483971 0)
(-0.050631557 -0.22245347 0)
(-0.0757440648 -0.277375536 0)
(-0.091583837 -0.32360438 0)
(-0.088057988 -0.342864162 0)
(-0.0593476786 -0.302137066 0)
(-0.0191649202 -0.151974068 0)
(-0.0264625438 0.193171192 0)
(-0.0677000379 0.335014321 0)
(-0.0729896197 0.34465185 0)
(-0.0441147957 0.301756049 0)
(0.00159043139 0.244051747 0)
(0.0502178715 0.187354316 0)
(0.0938180451 0.136864138 0)
(0.128367537 0.0929595315 0)
(0.152066822 0.0541905811 0)
(0.164225582 0.0185620104 0)
(0.16461788 -0.0160354726 0)
(0.153198339 -0.051732528 0)
(0.130098915 -0.0906764469 0)
(0.095909589 -0.134939064 0)
(0.0523327129 -0.186079792 0)
(0.00333419683 -0.243831942 0)
(-0.0430904946 -0.303013979 0)
(-0.0728279131 -0.347547204 0)
(-0.0681295089 -0.338913013 0)
(-0.0267083255 -0.195840587 0)
(-0.0289527575 0.251331312 0)
(-0.0581036115 0.350741897 0)
(-0.0140170748 0.309539067 0)
(0.0632657959 0.242400597 0)
(0.14294696 0.180310319 0)
(0.212723818 0.129919439 0)
(0.268472774 0.0905925641 0)
(0.309449324 0.0595774658 0)
(0.336245826 0.0340345968 0)
(0.349654593 0.0115487767 0)
(0.350147697 -0.00995156185 0)
(0.337700438 -0.0324236445 0)
(0.311782817 -0.0579641655 0)
(0.271519282 -0.0890461148 0)
(0.216198153 -0.128613177 0)
(0.146424035 -0.179576155 0)
(0.0662122524 -0.242735896 0)
(-0.0121382479 -0.311417368 0)
(-0.0574832345 -0.354042304 0)
(-0.0288312472 -0.254177677 0)
(0.0132195547 0.289507493 0)
(0.0296816839 0.302854559 0)
(0.154179691 0.21406881 0)
(0.282833702 0.14234522 0)
(0.382969603 0.0939486649 0)
(0.45713086 0.0619624486 0)
(0.510502493 0.0405509448 0)
(0.547090515 0.0255474113 0)
(0.569959924 0.0142061157 0)
(0.581116174 0.00473812368 0)
(0.581523402 -0.00414301182 0)
(0.571184992 -0.0135724697 0)
(0.549136896 -0.0248412693 0)
(0.513349855 -0.0397538552 0)
(0.460686705 -0.0611006449 0)
(0.387005994 -0.093159557 0)
(0.286924355 -0.141969627 0)
(0.15762611 -0.214616955 0)
(0.031829184 -0.304532301 0)
(0.014260029 -0.291324499 0)
(0.304245119 0.147454745 0)
(0.40556337 0.127829556 0)
(0.569531339 0.0747835012 0)
(0.686121676 0.0418385763 0)
(0.753522532 0.0238429721 0)
(0.794598211 0.0139302366 0)
(0.820887686 0.00829802142 0)
(0.837586479 0.00488893184 0)
(0.847522291 0.00260052897 0)
(0.852223003 0.000835247071 0)
(0.85235081 -0.000772308192 0)
(0.847917609 -0.00252075568 0)
(0.838285537 -0.00477209327 0)
(0.82194945 -0.00811771643 0)
(0.796091299 -0.0136558013 0)
(0.755502851 -0.0234583762 0)
(0.688596478 -0.0413908869 0)
(0.572194812 -0.07444033 0)
(0.4075242 -0.12786856 0)
(0.305169545 -0.147795834 0)
)
;

boundaryField
{
    top
    {
        type            fixedValue;
        value           uniform (1 0 0);
    }
    left
    {
        type            fixedValue;
        value           uniform (0 0 0);
    }
    right
    {
        type            fixedValue;
        value           uniform (0 0 0);
    }
    bottom
    {
        type            fixedValue;
        value           uniform (0 0 0);
    }
    back0
    {
        type            empty;
    }
    front1
    {
        type            empty;
    }
}


// ************************************************************************* //
