/*--------------------------------*- C++ -*----------------------------------*\
| =========                 |                                                 |
| \\      /  F ield         | OpenFOAM: The Open Source CFD Toolbox           |
|  \\    /   O peration     | Version:  3.0.1                                 |
|   \\  /    A nd           | Web:      www.OpenFOAM.org                      |
|    \\/     M anipulation  |                                                 |
\*---------------------------------------------------------------------------*/
FoamFile
{
    version     2.0;
    format      ascii;
    class       volVectorField;
    location    "6";
    object      W;
}
// * * * * * * * * * * * * * * * * * * * * * * * * * * * * * * * * * * * * * //

dimensions      [0 1 -1 0 0 0 0];

internalField   nonuniform List<vector> 
400
(
(-2.67028139e-08 5.30545982e-08 0)
(-1.57415307e-07 1.8573538e-07 0)
(-2.05393205e-07 2.31150707e-07 0)
(6.71044099e-08 5.84843317e-08 0)
(4.62838023e-07 -2.69961584e-07 0)
(6.2465603e-07 -5.23160016e-07 0)
(3.17646879e-07 -4.65764198e-07 0)
(-3.38366989e-07 -5.6579811e-08 0)
(-9.05832139e-07 4.7869218e-07 0)
(-9.34040034e-07 7.7885056e-07 0)
(-3.11915295e-07 6.00339713e-07 0)
(6.07555706e-07 7.6564972e-09 0)
(1.22467014e-06 -6.45804767e-07 0)
(1.10526005e-06 -9.42139019e-07 0)
(2.85960542e-07 -6.73962602e-07 0)
(-7.53262584e-07 1.88588432e-08 0)
(-1.43005097e-06 7.40131396e-07 0)
(-1.46161988e-06 1.09597881e-06 0)
(-9.99876128e-07 9.54523691e-07 0)
(-2.97556153e-07 3.6736791e-07 0)
(8.09303479e-08 -3.07788304e-08 0)
(-3.46772716e-08 2.98233499e-07 0)
(-4.12290623e-07 5.74347928e-07 0)
(-4.70432704e-07 4.14465986e-07 0)
(-5.88636974e-08 -2.23316336e-07 0)
(5.66053058e-07 -9.48562648e-07 0)
(9.03837132e-07 -1.1855215e-06 0)
(6.0701834e-07 -6.1546088e-07 0)
(-2.12201199e-07 5.11815171e-07 0)
(-1.01418431e-06 1.48006522e-06 0)
(-1.20692514e-06 1.58633535e-06 0)
(-5.89184276e-07 6.58451723e-07 0)
(4.78461795e-07 -7.77693174e-07 0)
(1.31123499e-06 -1.82063026e-06 0)
(1.36930988e-06 -1.78874359e-06 0)
(6.06506156e-07 -6.76249511e-07 0)
(-5.58264352e-07 8.48918568e-07 0)
(-1.54429617e-06 1.91874425e-06 0)
(-1.96754706e-06 2.07736571e-06 0)
(-8.64638364e-07 1.11863675e-06 0)
(2.75232231e-07 -2.94496891e-07 0)
(4.05095823e-07 -7.52657745e-08 0)
(-1.5571065e-07 4.38472851e-07 0)
(-7.14579884e-07 7.74623173e-07 0)
(-7.90008697e-07 5.70536247e-07 0)
(-2.05587178e-07 -1.71997932e-07 0)
(6.95424785e-07 -9.96213035e-07 0)
(1.25551327e-06 -1.27519585e-06 0)
(9.86262807e-07 -6.93516688e-07 0)
(-2.68151716e-08 4.59956462e-07 0)
(-1.13546078e-06 1.44196679e-06 0)
(-1.57002827e-06 1.5617925e-06 0)
(-9.89477017e-07 6.80030453e-07 0)
(2.66646314e-07 -6.70630046e-07 0)
(1.40129131e-06 -1.63942826e-06 0)
(1.68402888e-06 -1.63858631e-06 0)
(8.88450196e-07 -7.22972826e-07 0)
(-5.52060039e-07 5.39054045e-07 0)
(-1.76028565e-06 1.51080922e-06 0)
(-9.62967801e-07 1.45937653e-06 0)
(3.58966648e-07 -3.25298049e-07 0)
(7.83019489e-07 -5.07254201e-07 0)
(4.26128569e-07 -1.16612471e-07 0)
(-3.52424907e-07 5.83313116e-07 0)
(-1.04778031e-06 1.07731003e-06 0)
(-1.06638794e-06 8.76117071e-07 0)
(-2.43232957e-07 -3.95841087e-08 0)
(9.31987149e-07 -1.11546968e-06 0)
(1.61526668e-06 -1.58109916e-06 0)
(1.23544341e-06 -1.02060955e-06 0)
(-4.27406967e-08 2.81029846e-07 0)
(-1.39016923e-06 1.49487251e-06 0)
(-1.88234369e-06 1.81078807e-06 0)
(-1.15357505e-06 1.00195092e-06 0)
(3.33628578e-07 -4.18769223e-07 0)
(1.58825415e-06 -1.56014164e-06 0)
(1.74307055e-06 -1.75193516e-06 0)
(6.93595442e-07 -9.04975477e-07 0)
(-7.222729e-07 4.76497655e-07 0)
(-6.16620273e-07 1.27616549e-06 0)
(1.89965501e-07 -7.07679731e-09 0)
(6.91470197e-07 -6.14334516e-07 0)
(9.10104922e-07 -7.61072587e-07 0)
(4.67549171e-07 -2.02695398e-07 0)
(-5.09912731e-07 7.63621606e-07 0)
(-1.34301677e-06 1.42036949e-06 0)
(-1.30981931e-06 1.16796882e-06 0)
(-2.78071163e-07 2.19917936e-08 0)
(1.11023384e-06 -1.31416393e-06 0)
(1.86868966e-06 -1.91129717e-06 0)
(1.39523092e-06 -1.2870945e-06 0)
(-5.54309418e-08 2.14095321e-07 0)
(-1.52062067e-06 1.63001523e-06 0)
(-2.00061684e-06 2.03762169e-06 0)
(-1.17040932e-06 1.1872408e-06 0)
(3.78022597e-07 -3.37759932e-07 0)
(1.54673272e-06 -1.53366801e-06 0)
(1.56828002e-06 -1.63355999e-06 0)
(6.62871799e-07 -6.43682437e-07 0)
(1.41940401e-08 5.36866723e-07 0)
(-1.90839561e-07 4.81636407e-07 0)
(1.84183122e-08 -2.06271785e-07 0)
(8.31383654e-07 -9.66980081e-07 0)
(1.16995667e-06 -1.06601224e-06 0)
(5.77559158e-07 -2.88098119e-07 0)
(-6.57985441e-07 9.24866753e-07 0)
(-1.63872611e-06 1.71631548e-06 0)
(-1.55106621e-06 1.41511539e-06 0)
(-3.23870374e-07 8.64924389e-08 0)
(1.25401448e-06 -1.43903149e-06 0)
(2.07691348e-06 -2.12194324e-06 0)
(1.52897567e-06 -1.45716238e-06 0)
(-4.86877774e-08 1.46954889e-07 0)
(-1.58346972e-06 1.64046857e-06 0)
(-2.0330503e-06 2.06281655e-06 0)
(-1.13421683e-06 1.20806094e-06 0)
(4.21603369e-07 -2.55992245e-07 0)
(1.53490376e-06 -1.29661891e-06 0)
(1.59394029e-06 -1.30961615e-06 0)
(5.78477116e-07 -4.20079446e-07 0)
(-5.46795745e-07 7.59614978e-07 0)
(-8.76285704e-07 4.98224725e-07 0)
(9.2958085e-08 -4.50734738e-07 0)
(1.16057866e-06 -1.28894001e-06 0)
(1.48091977e-06 -1.34185898e-06 0)
(6.63783155e-07 -3.88506069e-07 0)
(-8.15513539e-07 1.04438804e-06 0)
(-1.90590819e-06 1.96637625e-06 0)
(-1.74652203e-06 1.64328096e-06 0)
(-3.46931767e-07 1.83945577e-07 0)
(1.36901432e-06 -1.48162659e-06 0)
(2.21018151e-06 -2.23866085e-06 0)
(1.581893e-06 -1.57694684e-06 0)
(-7.44952461e-08 4.70402592e-08 0)
(-1.59611063e-06 1.5418884e-06 0)
(-1.94349692e-06 1.96403459e-06 0)
(-9.45881965e-07 1.16706041e-06 0)
(5.86456296e-07 -1.81333058e-07 0)
(1.52317411e-06 -1.16857545e-06 0)
(7.57025794e-07 -1.0518009e-06 0)
(-5.98021451e-07 5.30164167e-07 0)
(-1.353888e-06 9.81981877e-07 0)
(-8.76937243e-07 5.22419235e-07 0)
(3.04212509e-07 -5.61192015e-07 0)
(1.47506124e-06 -1.54995621e-06 0)
(1.72657677e-06 -1.6097676e-06 0)
(7.1828526e-07 -5.05103899e-07 0)
(-9.4784809e-07 1.12132622e-06 0)
(-2.10183888e-06 2.15714007e-06 0)
(-1.8698832e-06 1.82756237e-06 0)
(-3.50553696e-07 2.86813397e-07 0)
(1.42502175e-06 -1.46040562e-06 0)
(2.23060194e-06 -2.25987249e-06 0)
(1.53541539e-06 -1.61895364e-06 0)
(-1.13608949e-07 -3.43969256e-08 0)
(-1.50769833e-06 1.39655059e-06 0)
(-1.68253611e-06 1.77325484e-06 0)
(-6.6894043e-07 9.70641859e-07 0)
(5.45713235e-07 -3.38561959e-07 0)
(4.71656079e-07 -9.99535964e-07 0)
(-2.43442251e-07 -1.4844334e-07 0)
(-9.69192985e-07 8.12896876e-07 0)
(-1.38514592e-06 1.26854284e-06 0)
(-8.93438351e-07 7.01406383e-07 0)
(4.29022518e-07 -6.29992309e-07 0)
(1.70591157e-06 -1.78726402e-06 0)
(1.91518372e-06 -1.84873322e-06 0)
(7.58840317e-07 -6.21412929e-07 0)
(-1.03400171e-06 1.14590028e-06 0)
(-2.20996311e-06 2.26008201e-06 0)
(-1.91640832e-06 1.93728434e-06 0)
(-3.42185976e-07 3.7695393e-07 0)
(1.41254889e-06 -1.37384839e-06 0)
(2.14231738e-06 -2.16629464e-06 0)
(1.41583365e-06 -1.55511638e-06 0)
(-1.33143309e-07 -7.55922103e-08 0)
(-1.3304938e-06 1.19322807e-06 0)
(-1.41957649e-06 1.41795189e-06 0)
(-6.68791399e-07 6.1860526e-07 0)
(-6.62536212e-08 -3.50010766e-07 0)
(3.27458032e-07 -8.45992492e-07 0)
(1.39164581e-07 1.43321591e-08 0)
(-9.89403301e-07 1.18671151e-06 0)
(-1.60049586e-06 1.60555105e-06 0)
(-1.01558286e-06 8.46137365e-07 0)
(5.06712967e-07 -6.85441635e-07 0)
(1.88183247e-06 -1.96098619e-06 0)
(2.04492743e-06 -2.02537722e-06 0)
(7.82085971e-07 -7.29119586e-07 0)
(-1.07026163e-06 1.10850998e-06 0)
(-2.22392126e-06 2.2594515e-06 0)
(-1.88240633e-06 1.95981801e-06 0)
(-3.18839466e-07 4.48176299e-07 0)
(1.34217623e-06 -1.22484544e-06 0)
(1.9676424e-06 -1.96522586e-06 0)
(1.24035587e-06 -1.4069443e-06 0)
(-1.729453e-07 -1.14041931e-07 0)
(-1.2202527e-06 9.20074378e-07 0)
(-1.34162036e-06 1.07930553e-06 0)
(-5.01840093e-07 4.29500048e-07 0)
(7.39100306e-07 -1.04726732e-06 0)
(1.27355807e-06 -8.9364613e-07 0)
(1.25853699e-07 2.47328021e-07 0)
(-1.26617696e-06 1.44054429e-06 0)
(-1.86192954e-06 1.8256358e-06 0)
(-1.09962253e-06 9.69539543e-07 0)
(5.7331169e-07 -6.86445964e-07 0)
(1.98590303e-06 -2.04191071e-06 0)
(2.09581537e-06 -2.1238233e-06 0)
(7.80822752e-07 -8.20421851e-07 0)
(-1.05504299e-06 1.01260201e-06 0)
(-2.14153112e-06 2.15663618e-06 0)
(-1.76752606e-06 1.89384933e-06 0)
(-2.77376744e-07 4.91798256e-07 0)
(1.2235257e-06 -1.03690272e-06 0)
(1.71255536e-06 -1.69954548e-06 0)
(9.7934897e-07 -1.21692777e-06 0)
(-2.85928511e-07 -1.11657142e-07 0)
(-1.10989832e-06 7.9573949e-07 0)
(-5.76654473e-07 8.29738615e-07 0)
(6.91288582e-07 -5.44015276e-07 0)
(1.64280903e-06 -1.24888839e-06 0)
(1.22823937e-06 -9.30556637e-07 0)
(-6.17114491e-08 2.48787876e-07 0)
(-1.48528338e-06 1.55857123e-06 0)
(-2.00259072e-06 1.99050804e-06 0)
(-1.12915326e-06 1.09026742e-06 0)
(6.04431008e-07 -6.30759753e-07 0)
(1.99628568e-06 -2.02493872e-06 0)
(2.0598321e-06 -2.13369456e-06 0)
(7.54962287e-07 -8.82145471e-07 0)
(-9.89929036e-07 8.72197053e-07 0)
(-1.97063954e-06 1.96362883e-06 0)
(-1.58337447e-06 1.74307543e-06 0)
(-2.27147845e-07 4.94508798e-07 0)
(1.05265722e-06 -8.42906678e-07 0)
(1.37824187e-06 -1.39599469e-06 0)
(6.98090417e-07 -9.35479541e-07 0)
(-2.36681764e-07 4.84318592e-08 0)
(-2.91646489e-07 6.51489707e-07 0)
(1.88047986e-07 3.72120709e-07 0)
(9.43309548e-07 -7.4603569e-07 0)
(1.54560883e-06 -1.50501985e-06 0)
(1.20314119e-06 -1.15392964e-06 0)
(-1.19386412e-07 1.94350167e-07 0)
(-1.56758987e-06 1.62121793e-06 0)
(-2.04596872e-06 2.08494895e-06 0)
(-1.12731966e-06 1.18146546e-06 0)
(5.8944145e-07 -5.30113171e-07 0)
(1.91430158e-06 -1.91009254e-06 0)
(1.94272884e-06 -2.04863591e-06 0)
(7.05532008e-07 -9.02672816e-07 0)
(-8.85295811e-07 7.03924649e-07 0)
(-1.73330667e-06 1.69806268e-06 0)
(-1.35577982e-06 1.51800347e-06 0)
(-1.81463876e-07 4.55467726e-07 0)
(8.55917905e-07 -6.4195647e-07 0)
(1.0904463e-06 -1.02837538e-06 0)
(6.29857608e-07 -5.97541763e-07 0)
(1.20008926e-07 1.08284279e-07 0)
(-4.4483542e-07 1.08508503e-06 0)
(-3.85344736e-07 3.04099942e-07 0)
(8.36772105e-07 -1.0384123e-06 0)
(1.65355106e-06 -1.75991914e-06 0)
(1.28894373e-06 -1.29263272e-06 0)
(-1.1689647e-07 1.32167721e-07 0)
(-1.56929459e-06 1.591866e-06 0)
(-2.00573336e-06 2.07796517e-06 0)
(-1.09107092e-06 1.22913556e-06 0)
(5.38164947e-07 -3.94072894e-07 0)
(1.75221665e-06 -1.70820769e-06 0)
(1.75362644e-06 -1.87692732e-06 0)
(6.30737813e-07 -8.80248149e-07 0)
(-7.58795796e-07 5.23576625e-07 0)
(-1.4578653e-06 1.38677022e-06 0)
(-1.1031121e-06 1.2498638e-06 0)
(-1.11779458e-07 4.01756406e-07 0)
(7.34478831e-07 -4.38646074e-07 0)
(9.44191493e-07 -7.26900384e-07 0)
(3.78563247e-07 -3.77411963e-07 0)
(-7.803137e-07 1.08771913e-06 0)
(-1.44747642e-06 1.17059565e-06 0)
(-4.13502877e-07 1.49620666e-07 0)
(9.9250486e-07 -1.132171e-06 0)
(1.77122257e-06 -1.82609639e-06 0)
(1.3090959e-06 -1.36657523e-06 0)
(-1.05235448e-07 3.41552578e-08 0)
(-1.48870869e-06 1.46899491e-06 0)
(-1.87565829e-06 1.97515475e-06 0)
(-1.01753689e-06 1.22600297e-06 0)
(4.57235933e-07 -2.46641123e-07 0)
(1.5236408e-06 -1.45058945e-06 0)
(1.50655252e-06 -1.64178842e-06 0)
(5.33957602e-07 -8.16911837e-07 0)
(-6.21742501e-07 3.54760388e-07 0)
(-1.15807679e-06 1.07256765e-06 0)
(-8.14803675e-07 9.77250743e-07 0)
(4.06114482e-09 3.15267276e-07 0)
(6.21512011e-07 -3.53525796e-07 0)
(3.53958273e-07 -5.03023709e-07 0)
(-5.95066648e-07 3.55339255e-07 0)
(-1.53141325e-06 1.22451442e-06 0)
(-1.34261852e-06 1.1916191e-06 0)
(-2.79313905e-07 2.41141694e-07 0)
(1.05705655e-06 -1.05757454e-06 0)
(1.74259148e-06 -1.78038733e-06 0)
(1.2622931e-06 -1.37190195e-06 0)
(-6.99863647e-08 -6.57322557e-08 0)
(-1.33499714e-06 1.27561502e-06 0)
(-1.67958258e-06 1.7745853e-06 0)
(-9.20578483e-07 1.14866879e-06 0)
(3.56761806e-07 -1.21060901e-07 0)
(1.25780053e-06 -1.16656058e-06 0)
(1.2322543e-06 -1.35698323e-06 0)
(4.31476791e-07 -7.04688274e-07 0)
(-4.75229886e-07 2.24419344e-07 0)
(-8.45318425e-07 7.81472273e-07 0)
(-5.42468491e-07 6.85305993e-07 0)
(1.73993937e-08 1.53921915e-07 0)
(1.28840908e-07 -2.79285596e-07 0)
(-3.17299114e-08 -6.29153363e-07 0)
(-6.22164936e-07 3.9524423e-07 0)
(-1.33875362e-06 1.30702239e-06 0)
(-1.24172876e-06 1.30991893e-06 0)
(-2.41469984e-07 3.69003526e-07 0)
(1.00595253e-06 -8.78214901e-07 0)
(1.61189757e-06 -1.591714e-06 0)
(1.15036105e-06 -1.28990073e-06 0)
(-4.67980765e-08 -1.82115671e-07 0)
(-1.1500775e-06 9.87019447e-07 0)
(-1.43588402e-06 1.46514512e-06 0)
(-7.85956862e-07 1.00557116e-06 0)
(2.72883061e-07 -1.96736377e-10 0)
(9.93133972e-07 -8.45749869e-07 0)
(9.55653503e-07 -1.02565753e-06 0)
(3.27617567e-07 -5.55624494e-07 0)
(-3.41576143e-07 1.17345068e-07 0)
(-5.92885127e-07 4.95917843e-07 0)
(-4.05911096e-07 4.00978281e-07 0)
(-1.00424007e-07 3.86651669e-08 0)
(5.18081491e-07 -1.2308207e-06 0)
(6.29488881e-07 -7.49544124e-07 0)
(-4.37746855e-07 4.42746945e-07 0)
(-1.22255234e-06 1.32870665e-06 0)
(-1.13617865e-06 1.36994577e-06 0)
(-2.38911596e-07 5.43046321e-07 0)
(8.24098095e-07 -6.27367104e-07 0)
(1.32446662e-06 -1.38397477e-06 0)
(9.47291871e-07 -1.25290603e-06 0)
(-1.08383025e-08 -3.62859279e-07 0)
(-8.78884006e-07 6.67320287e-07 0)
(-1.09844345e-06 1.17657967e-06 0)
(-6.01665053e-07 9.11063135e-07 0)
(1.8754972e-07 1.53815669e-07 0)
(7.05211084e-07 -5.33348685e-07 0)
(6.63588839e-07 -7.34869872e-07 0)
(2.11273422e-07 -4.44334988e-07 0)
(-2.51724687e-07 9.85823367e-09 0)
(-4.24513336e-07 2.72030982e-07 0)
(-1.84865129e-07 1.93850749e-07 0)
(7.26397912e-07 -1.13451845e-06 0)
(1.43920091e-06 -1.44251794e-06 0)
(7.32537053e-07 -6.36633736e-07 0)
(-3.17142426e-07 5.24722699e-07 0)
(-1.08161344e-06 1.37483508e-06 0)
(-1.09993074e-06 1.37690072e-06 0)
(-4.08520542e-07 5.22566791e-07 0)
(5.05124773e-07 -6.32536772e-07 0)
(1.03432202e-06 -1.34860856e-06 0)
(8.6634083e-07 -1.20446805e-06 0)
(1.76014867e-07 -3.60773967e-07 0)
(-5.30518965e-07 5.89006806e-07 0)
(-7.93982258e-07 1.05076601e-06 0)
(-5.14815141e-07 8.23545669e-07 0)
(2.32851682e-08 1.79354114e-07 0)
(4.08762812e-07 -3.95152484e-07 0)
(4.14044571e-07 -5.67713162e-07 0)
(1.29525121e-07 -3.52714777e-07 0)
(-1.59256115e-07 -2.20256507e-08 0)
(-1.16289071e-07 1.31915907e-07 0)
(4.25071259e-07 -4.10169605e-07 0)
(1.12299386e-06 -7.03051749e-07 0)
(1.15862645e-06 -4.98982729e-07 0)
(5.84624876e-07 -1.38442868e-08 0)
(-2.84643692e-07 4.79085994e-07 0)
(-9.30198485e-07 6.73238533e-07 0)
(-9.67006952e-07 4.45531683e-07 0)
(-4.07119405e-07 -5.07587859e-08 0)
(3.56526431e-07 -4.93129943e-07 0)
(8.28391045e-07 -6.09913171e-07 0)
(7.45751794e-07 -3.56160211e-07 0)
(2.32635045e-07 7.40158567e-08 0)
(-3.24893046e-07 3.96542782e-07 0)
(-5.71872083e-07 4.34531359e-07 0)
(-4.20837948e-07 2.20027422e-07 0)
(-6.65546507e-08 -6.09713932e-08 0)
(2.01893521e-07 -2.21760006e-07 0)
(2.27707647e-07 -2.00234867e-07 0)
(7.91627403e-08 -7.18437025e-08 0)
(-5.57252022e-09 2.80985221e-08 0)
)
;

boundaryField
{
    top
    {
        type            calculated;
        value           uniform (-5.55111512e-15 0 0);
    }
    left
    {
        type            calculated;
        value           uniform (0 0 0);
    }
    right
    {
        type            calculated;
        value           uniform (0 0 0);
    }
    bottom
    {
        type            calculated;
        value           uniform (0 0 0);
    }
    back0
    {
        type            empty;
    }
    front1
    {
        type            empty;
    }
}


// ************************************************************************* //
