/*--------------------------------*- C++ -*----------------------------------*\
| =========                 |                                                 |
| \\      /  F ield         | OpenFOAM: The Open Source CFD Toolbox           |
|  \\    /   O peration     | Version:  3.0.1                                 |
|   \\  /    A nd           | Web:      www.OpenFOAM.org                      |
|    \\/     M anipulation  |                                                 |
\*---------------------------------------------------------------------------*/
FoamFile
{
    version     2.0;
    format      ascii;
    class       volVectorField;
    location    "8";
    object      vorticity;
}
// * * * * * * * * * * * * * * * * * * * * * * * * * * * * * * * * * * * * * //

dimensions      [0 0 -1 0 0 0 0];

internalField   nonuniform List<vector> 
400
(
(0 -0 -0.00347019934)
(0 -0 0.0221848612)
(0 -0 0.075517235)
(0 -0 0.156108513)
(0 -0 0.254454191)
(0 -0 0.358690624)
(0 -0 0.45725907)
(0 -0 0.540229231)
(0 -0 0.599920497)
(0 -0 0.63113842)
(0 -0 0.631252057)
(0 -0 0.600220507)
(0 -0 0.54060798)
(0 -0 0.457582567)
(0 -0 0.358850531)
(0 -0 0.254412236)
(0 -0 0.155913831)
(0 -0 0.0752822156)
(0 -0 0.02201491)
(0 -0 -0.0035528103)
(0 -0 0.0218567664)
(0 -0 0.0761113224)
(0 -0 0.128104157)
(0 -0 0.186678305)
(0 -0 0.251556483)
(0 -0 0.31827326)
(0 -0 0.380917466)
(0 -0 0.43368123)
(0 -0 0.471724301)
(0 -0 0.491634077)
(0 -0 0.491655188)
(0 -0 0.471784268)
(0 -0 0.433770981)
(0 -0 0.381024556)
(0 -0 0.318383865)
(0 -0 0.251655366)
(0 -0 0.186746457)
(0 -0 0.128115734)
(0 -0 0.0760345076)
(0 -0 0.0216763879)
(0 -0 0.0753326509)
(0 -0 0.132300125)
(0 -0 0.174101853)
(0 -0 0.210913839)
(0 -0 0.246757776)
(0 -0 0.281835072)
(0 -0 0.314345889)
(0 -0 0.341749125)
(0 -0 0.361586267)
(0 -0 0.371991034)
(0 -0 0.371977475)
(0 -0 0.361565417)
(0 -0 0.341771975)
(0 -0 0.314471341)
(0 -0 0.282098428)
(0 -0 0.247141167)
(0 -0 0.211330878)
(0 -0 0.174407469)
(0 -0 0.132330366)
(0 -0 0.0749742694)
(0 -0 0.162175961)
(0 -0 0.20366814)
(0 -0 0.225096443)
(0 -0 0.236099222)
(0 -0 0.24266893)
(0 -0 0.247868117)
(0 -0 0.252763787)
(0 -0 0.257268342)
(0 -0 0.260797376)
(0 -0 0.262735888)
(0 -0 0.262728526)
(0 -0 0.260811006)
(0 -0 0.257394687)
(0 -0 0.253108163)
(0 -0 0.248492095)
(0 -0 0.243536221)
(0 -0 0.23704615)
(0 -0 0.225845527)
(0 -0 0.203891887)
(0 -0 0.161606499)
(0 -0 0.282044935)
(0 -0 0.295149525)
(0 -0 0.286568536)
(0 -0 0.265744808)
(0 -0 0.239935018)
(0 -0 0.214143851)
(0 -0 0.191481231)
(0 -0 0.173666864)
(0 -0 0.161526622)
(0 -0 0.155399722)
(0 -0 0.15541623)
(0 -0 0.161627199)
(0 -0 0.173982969)
(0 -0 0.19216491)
(0 -0 0.215285014)
(0 -0 0.241479699)
(0 -0 0.267443784)
(0 -0 0.287984144)
(0 -0 0.295735803)
(0 -0 0.281301966)
(0 -0 0.434347917)
(0 -0 0.408435967)
(0 -0 0.360421)
(0 -0 0.30048944)
(0 -0 0.237244757)
(0 -0 0.17729612)
(0 -0 0.125311121)
(0 -0 0.084332822)
(0 -0 0.0561929572)
(0 -0 0.0419006998)
(0 -0 0.0419279258)
(0 -0 0.0563468282)
(0 -0 0.084801649)
(0 -0 0.126320416)
(0 -0 0.178995512)
(0 -0 0.239588793)
(0 -0 0.303149978)
(0 -0 0.362772643)
(0 -0 0.409645645)
(0 -0 0.433583249)
(0 -0 0.619556188)
(0 -0 0.544059432)
(0 -0 0.446464693)
(0 -0 0.338793271)
(0 -0 0.231436436)
(0 -0 0.132583243)
(0 -0 0.048165745)
(0 -0 -0.017848903)
(0 -0 -0.063008944)
(0 -0 -0.085927995)
(0 -0 -0.085943738)
(0 -0 -0.062951083)
(0 -0 -0.017437489)
(0 -0 0.04928428)
(0 -0 0.134684782)
(0 -0 0.234547304)
(0 -0 0.34254455)
(0 -0 0.450033516)
(0 -0 0.546256031)
(0 -0 0.619098079)
(0 -0 0.839525402)
(0 -0 0.702185324)
(0 -0 0.543057116)
(0 -0 0.377212093)
(0 -0 0.217452925)
(0 -0 0.073646314)
(0 -0 -0.047271785)
(0 -0 -0.140843076)
(0 -0 -0.204444)
(0 -0 -0.236661248)
(0 -0 -0.236825163)
(0 -0 -0.204780909)
(0 -0 -0.140930992)
(0 -0 -0.046546598)
(0 -0 0.075693984)
(0 -0 0.221035476)
(0 -0 0.382010894)
(0 -0 0.548083442)
(0 -0 0.705839832)
(0 -0 0.839948351)
(0 -0 1.09750753)
(0 -0 0.882743849)
(0 -0 0.647103562)
(0 -0 0.410205608)
(0 -0 0.188018723)
(0 -0 -0.00785143)
(0 -0 -0.169874927)
(0 -0 -0.293726626)
(0 -0 -0.377236295)
(0 -0 -0.419443627)
(0 -0 -0.419921452)
(0 -0 -0.378445896)
(0 -0 -0.295043966)
(0 -0 -0.170420421)
(0 -0 -0.00673292)
(0 -0 0.191378346)
(0 -0 0.415708875)
(0 -0 0.653702525)
(0 -0 0.88842082)
(0 -0 1.09970101)
(0 -0 1.39816962)
(0 -0 1.08514945)
(0 -0 0.753480338)
(0 -0 0.429411722)
(0 -0 0.132938133)
(0 -0 -0.12278154)
(0 -0 -0.330437348)
(0 -0 -0.486868705)
(0 -0 -0.591310623)
(0 -0 -0.643954149)
(0 -0 -0.644973282)
(0 -0 -0.594058636)
(0 -0 -0.490463807)
(0 -0 -0.33357398)
(0 -0 -0.12400401)
(0 -0 0.134821331)
(0 -0 0.434805424)
(0 -0 0.761507921)
(0 -0 1.09345669)
(0 -0 1.40339406)
(0 -0 1.74784957)
(0 -0 1.30760403)
(0 -0 0.853724597)
(0 -0 0.422202167)
(0 -0 0.03788162)
(0 -0 -0.28536182)
(0 -0 -0.5420692)
(0 -0 -0.731987093)
(0 -0 -0.857215923)
(0 -0 -0.920105945)
(0 -0 -0.92193892)
(0 -0 -0.862315342)
(0 -0 -0.739187657)
(0 -0 -0.54955927)
(0 -0 -0.290944)
(0 -0 0.03632073)
(0 -0 0.425987543)
(0 -0 0.862574292)
(0 -0 1.31908029)
(0 -0 1.75776059)
(0 -0 2.15519794)
(0 -0 1.54564017)
(0 -0 0.933494599)
(0 -0 0.369131901)
(0 -0 -0.11752992)
(0 -0 -0.51424723)
(0 -0 -0.82055673)
(0 -0 -1.04197661)
(0 -0 -1.18562213)
(0 -0 -1.25737506)
(0 -0 -1.26029171)
(0 -0 -1.193903)
(0 -0 -1.05421608)
(0 -0 -0.83444903)
(0 -0 -0.52674999)
(0 -0 -0.125299)
(0 -0 0.368895889)
(0 -0 0.941805847)
(0 -0 1.56054196)
(0 -0 2.17180758)
(0 -0 2.63220548)
(0 -0 1.78887522)
(0 -0 0.967690454)
(0 -0 0.239598256)
(0 -0 -0.3625581)
(0 -0 -0.83381769)
(0 -0 -1.18448707)
(0 -0 -1.4303073)
(0 -0 -1.58632446)
(0 -0 -1.66362103)
(0 -0 -1.66779451)
(0 -0 -1.59836649)
(0 -0 -1.44873157)
(0 -0 -1.20668325)
(0 -0 -0.85599263)
(0 -0 -0.37996021)
(0 -0 0.231856195)
(0 -0 0.972967736)
(0 -0 1.80680199)
(0 -0 2.65772487)
(0 -0 3.19470503)
(0 -0 2.01329419)
(0 -0 0.910984563)
(0 -0 -0.01532094)
(0 -0 -0.73915961)
(0 -0 -1.27527865)
(0 -0 -1.65468773)
(0 -0 -1.90964428)
(0 -0 -2.06653339)
(0 -0 -2.14325838)
(0 -0 -2.1486169)
(0 -0 -2.08223008)
(0 -0 -1.9344229)
(0 -0 -1.68608635)
(0 -0 -1.30920821)
(0 -0 -0.7696578)
(0 -0 -0.03498489)
(0 -0 0.909197488)
(0 -0 2.03256241)
(0 -0 3.23114952)
(0 -0 3.85814445)
(0 -0 2.16246379)
(0 -0 0.679540805)
(0 -0 -0.473964597)
(0 -0 -1.30613507)
(0 -0 -1.87648168)
(0 -0 -2.25208867)
(0 -0 -2.48915648)
(0 -0 -2.62821219)
(0 -0 -2.69470447)
(0 -0 -2.70074616)
(0 -0 -2.6462026)
(0 -0 -2.5185102)
(0 -0 -2.29122733)
(0 -0 -1.9219717)
(0 -0 -1.35170327)
(0 -0 -0.509966118)
(0 -0 0.665013645)
(0 -0 2.1791633)
(0 -0 3.90645651)
(0 -0 4.61806723)
(0 -0 2.10223494)
(0 -0 0.116974422)
(0 -0 -1.25889838)
(0 -0 -2.14088094)
(0 -0 -2.67795318)
(0 -0 -2.99247833)
(0 -0 -3.16984143)
(0 -0 -3.26432423)
(0 -0 -3.30723183)
(0 -0 -3.31287566)
(0 -0 -3.28149139)
(0 -0 -3.19904377)
(0 -0 -3.03386915)
(0 -0 -2.73013774)
(0 -0 -2.19912047)
(0 -0 -1.31304037)
(0 -0 0.083510739)
(0 -0 2.1092257)
(0 -0 4.67646476)
(0 -0 5.38281773)
(0 -0 1.5109028)
(0 -0 -1.06365024)
(0 -0 -2.54895702)
(0 -0 -3.33100656)
(0 -0 -3.71033798)
(0 -0 -3.87606101)
(0 -0 -3.93734995)
(0 -0 -3.95421914)
(0 -0 -3.95776117)
(0 -0 -3.96139933)
(0 -0 -3.96574105)
(0 -0 -3.95845959)
(0 -0 -3.90910632)
(0 -0 -3.75722588)
(0 -0 -3.39102287)
(0 -0 -2.61511352)
(0 -0 -1.11818774)
(0 -0 1.49842173)
(0 -0 5.44419926)
(0 -0 5.62391117)
(0 -0 -0.391739689)
(0 -0 -3.35510612)
(0 -0 -4.56177245)
(0 -0 -4.93860329)
(0 -0 -4.96630745)
(0 -0 -4.87026423)
(0 -0 -4.75280945)
(0 -0 -4.65921789)
(0 -0 -4.6087675)
(0 -0 -4.60877942)
(0 -0 -4.65999257)
(0 -0 -4.75660453)
(0 -0 -4.88089279)
(0 -0 -4.98884033)
(0 -0 -4.97794515)
(0 -0 -4.61856062)
(0 -0 -3.41760432)
(0 -0 -0.427190019)
(0 -0 5.67251627)
(0 -0 2.59164181)
(0 -0 -5.39105665)
(0 -0 -7.44057751)
(0 -0 -7.42976024)
(0 -0 -6.90958346)
(0 -0 -6.35272116)
(0 -0 -5.88829951)
(0 -0 -5.54481984)
(0 -0 -5.3208575)
(0 -0 -5.20917534)
(0 -0 -5.20513704)
(0 -0 -5.30915428)
(0 -0 -5.52684106)
(0 -0 -5.86689544)
(0 -0 -6.33298848)
(0 -0 -6.89947797)
(0 -0 -7.43841622)
(0 -0 -7.46895733)
(0 -0 -5.41714979)
(0 -0 2.61856008)
(0 -0 -14.0725103)
(0 -0 -16.374262)
(0 -0 -13.6227995)
(0 -0 -10.8198515)
(0 -0 -8.91416203)
(0 -0 -7.63815876)
(0 -0 -6.77651121)
(0 -0 -6.21020496)
(0 -0 -5.86571471)
(0 -0 -5.70033663)
(0 -0 -5.69481794)
(0 -0 -5.84897185)
(0 -0 -6.18174526)
(0 -0 -6.73584399)
(0 -0 -7.58562653)
(0 -0 -8.85226241)
(0 -0 -10.7546112)
(0 -0 -13.5665675)
(0 -0 -16.3400212)
(0 -0 -14.0490603)
)
;

boundaryField
{
    top
    {
        type            calculated;
        value           nonuniform List<vector> 
20
(
(0 -0 -25.0773522)
(0 -0 -24.5041778)
(0 -0 -18.0786564)
(0 -0 -13.0645384)
(0 -0 -10.1381821)
(0 -0 -8.37152096)
(0 -0 -7.25490545)
(0 -0 -6.55351567)
(0 -0 -6.13964523)
(0 -0 -5.94480836)
(0 -0 -5.93952775)
(0 -0 -6.12329354)
(0 -0 -6.5245481)
(0 -0 -7.210859)
(0 -0 -8.30975455)
(0 -0 -10.0572368)
(0 -0 -12.9659605)
(0 -0 -17.9769843)
(0 -0 -24.432587)
(0 -0 -25.0365743)
)
;
    }
    left
    {
        type            calculated;
        value           nonuniform List<vector> 
20
(
(0 -0 -0.0121574478)
(0 -0 -3.838457e-05)
(0 -0 0.0497004819)
(0 -0 0.14237333)
(0 -0 0.275552258)
(0 -0 0.447202537)
(0 -0 0.657559613)
(0 -0 0.909284777)
(0 -0 1.20742731)
(0 -0 1.5596783)
(0 -0 1.97732331)
(0 -0 2.47743896)
(0 -0 3.08715798)
(0 -0 3.85040088)
(0 -0 4.83424892)
(0 -0 6.12913698)
(0 -0 7.82781037)
(0 -0 9.65643166)
(0 -0 8.24832107)
(0 -0 -10.9271634)
)
;
    }
    right
    {
        type            calculated;
        value           nonuniform List<vector> 
20
(
(0 -0 -0.012254736)
(0 -0 -0.00030700391)
(0 -0 0.0490993238)
(0 -0 0.14133234)
(0 -0 0.274034175)
(0 -0 0.445294951)
(0 -0 0.655561919)
(0 -0 0.907810779)
(0 -0 1.20751612)
(0 -0 1.56290529)
(0 -0 1.98589705)
(0 -0 2.4942609)
(0 -0 3.11580063)
(0 -0 3.89488022)
(0 -0 4.89826307)
(0 -0 6.21431611)
(0 -0 7.9302867)
(0 -0 9.75742353)
(0 -0 8.31297204)
(0 -0 -10.8938709)
)
;
    }
    bottom
    {
        type            calculated;
        value           nonuniform List<vector> 
20
(
(0 -0 -0.0118793245)
(0 -0 0.00164954468)
(0 -0 0.0535421074)
(0 -0 0.143033276)
(0 -0 0.256814254)
(0 -0 0.379115245)
(0 -0 0.495324172)
(0 -0 0.59328496)
(0 -0 0.663783356)
(0 -0 0.700664628)
(0 -0 0.700827716)
(0 -0 0.664213223)
(0 -0 0.59382542)
(0 -0 0.495781361)
(0 -0 0.379333876)
(0 -0 0.256742902)
(0 -0 0.142749551)
(0 -0 0.0532151816)
(0 -0 0.00143206784)
(0 -0 -0.011970855)
)
;
    }
    back0
    {
        type            empty;
    }
    front1
    {
        type            empty;
    }
}


// ************************************************************************* //
