/*--------------------------------*- C++ -*----------------------------------*\
| =========                 |                                                 |
| \\      /  F ield         | OpenFOAM: The Open Source CFD Toolbox           |
|  \\    /   O peration     | Version:  3.0.1                                 |
|   \\  /    A nd           | Web:      www.OpenFOAM.org                      |
|    \\/     M anipulation  |                                                 |
\*---------------------------------------------------------------------------*/
FoamFile
{
    version     2.0;
    format      ascii;
    class       surfaceScalarField;
    location    "2";
    object      phi;
}
// * * * * * * * * * * * * * * * * * * * * * * * * * * * * * * * * * * * * * //

dimensions      [0 3 -1 0 0 0 0];

internalField   nonuniform List<scalar> 
760
(
1.48286111e-05
-1.48450922e-05
-2.06694146e-05
3.54980408e-05
-0.000112522174
9.18528119e-05
-0.000244614953
0.000132092824
-0.000396820373
0.000152205422
-0.000549709717
0.000152889303
-0.000686467186
0.000136757424
-0.000793772024
0.000107304846
-0.000862077102
6.83051662e-05
-0.000885638228
2.35612664e-05
-0.000862489328
-2.31487831e-05
-0.000794446462
-6.80428387e-05
-0.000687159212
-0.000107287324
-0.000550173384
-0.000136985946
-0.000396907753
-0.000153265699
-0.000244342472
-0.000152565234
-0.000112068779
-0.000132273536
-2.02876044e-05
-9.17809876e-05
1.49801565e-05
-3.52676488e-05
1.49801273e-05
-3.279741e-05
1.7952331e-05
-0.000177274105
0.000179974734
-0.0004306633
0.000345242035
-0.000762839228
0.00046426881
-0.00113361861
0.000522984902
-0.00150161817
0.000520888963
-0.00182937305
0.000464512371
-0.00208620232
0.000364134138
-0.00224961362
0.000231716453
-0.00230590213
7.98497681e-05
-0.0022503787
-7.8672171e-05
-0.00208745831
-0.000230963146
-0.00183067147
-0.00036407404
-0.00150250446
-0.000465152854
-0.00113381154
-0.000521958562
-0.000762352296
-0.000524024465
-0.000429806252
-0.000464819601
-0.00017650493
-0.000345082352
-3.245291e-05
-0.000179319747
-1.74726859e-05
-9.02057608e-05
0.000108158145
-0.00035289608
0.000442665074
-0.000760602258
0.000752948252
-0.00126724071
0.000970907311
-0.00181761936
0.00107336361
-0.00235581967
0.00105908934
-0.00283112984
0.000939822591
-0.00320177494
0.000734779266
-0.00343696525
0.000466906772
-0.00351787689
0.000160761436
-0.00343806499
-0.000158484021
-0.00320361258
-0.000465415472
-0.00283310496
-0.000734581571
-0.00235730395
-0.000940953797
-0.00181818887
-0.00106107361
-0.00126684691
-0.00107536641
-0.000759602354
-0.000972064135
-0.000351894578
-0.000752790102
-8.97162694e-05
-0.000441498068
-0.000107188804
-0.000142725721
0.000250883918
-0.000521156429
0.000821095831
-0.00107877819
0.00131057006
-0.00174927126
0.00164140043
-0.00246204305
0.00178613544
-0.00314895871
0.00174600506
-0.00374966792
0.00154053185
-0.00421508569
0.00120019707
-0.00450930221
0.000761123308
-0.00461045112
0.000261910369
-0.00451104016
-0.000257894935
-0.0042180758
-0.000758379761
-0.00375308499
-0.0011995723
-0.00315189503
-0.00154214368
-0.00246380717
-0.00174916143
-0.00174963518
-0.00178953838
-0.00107807158
-0.00164362772
-0.000520127072
-0.0013107346
-0.000142137005
-0.00081948813
-0.000249325684
-0.000191108473
0.000441992405
-0.000682219533
0.00131220698
-0.00138732068
0.00201567127
-0.00221710409
0.00247118389
-0.00308417202
0.00265320342
-0.0039086532
0.00257048628
-0.00462240485
0.00225428355
-0.00517146497
0.00174925725
-0.00551708716
0.00110674554
-0.00563594036
0.0003807636
-0.00552002264
-0.000373812629
-0.00517665244
-0.00110174992
-0.00462865313
-0.00174757156
-0.00391458217
-0.00225621458
-0.00308860648
-0.00257513707
-0.00221943932
-0.00265870549
-0.00138772978
-0.00247533725
-0.000681573877
-0.00201689048
-0.000190525857
-0.00131053614
-0.000439851503
-0.000238305068
0.000680297437
-0.000842095839
0.00191599785
-0.00169514056
0.00286871605
-0.00268291812
0.00345896151
-0.00369984204
0.00367012737
-0.00465445484
0.00352509913
-0.0054722578
0.00307208655
-0.00609649862
0.00237349812
-0.00648763966
0.00149788663
-0.0066223282
0.000515452189
-0.00649254266
-0.000503598147
-0.00610533319
-0.00148895936
-0.00548329067
-0.00236961404
-0.00466558478
-0.00307392041
-0.00370911788
-0.0035316039
-0.0026890722
-0.0036787511
-0.00169797547
-0.00346643392
-0.00084253366
-0.00287233227
-0.000237931445
-0.00191513832
-0.000677782997
-0.000287378079
0.000967675463
-0.00100782328
0.00263644314
-0.00201201766
0.00387291048
-0.00315754851
0.00460449241
-0.00431950114
0.00483208006
-0.00539549676
0.0046010948
-0.00630668213
0.00398327196
-0.00699609514
0.00306291118
-0.00742581877
0.00192761032
-0.00757414413
0.000663777598
-0.00743359684
-0.000644145397
-0.0070103079
-0.00191224827
-0.00632488112
-0.00305504079
-0.00541459528
-0.00398420621
-0.00433643111
-0.00460976802
-0.00317000757
-0.00484517458
-0.00201911831
-0.00461732311
-0.00101037793
-0.00388107257
-0.000287535546
-0.00263798063
-0.000965318627
-0.000341212418
0.00130888787
-0.00118606913
0.00348129989
-0.00234617524
0.00503301662
-0.00364749892
0.00590581613
-0.00494510493
0.00612968612
-0.00612756564
0.00578355556
-0.00711505544
0.00497076181
-0.00785418365
0.00380203944
-0.00831193802
0.00238536474
-0.00847043761
0.000822277236
-0.00832350516
-0.000791077797
-0.00787555507
-0.00236019832
-0.00714295039
-0.00378764544
-0.00615769363
-0.00496946295
-0.00497294325
-0.00579451836
-0.00366927823
-0.00614883954
-0.002359882
-0.00592671927
-0.0011921203
-0.00504883418
-0.000342355955
-0.0034877449
-0.00130767463
-0.000402662274
0.00171155021
-0.00138288343
0.00446152104
-0.00270314674
0.00635327994
-0.00415277737
0.00735544679
-0.00556708781
0.0075439966
-0.00682952896
0.00704599677
-0.00786487627
0.00600610918
-0.00862889031
0.00456605352
-0.00909798454
0.00285445902
-0.00926099523
0.000985287976
-0.0091140431
-0.000938029875
-0.00865885418
-0.00281538719
-0.00790464537
-0.00454185421
-0.00687353033
-0.00600057795
-0.00560910044
-0.00705894823
-0.00418713272
-0.00757080722
-0.00272616164
-0.00738769029
-0.00139412421
-0.00638087152
-0.000405385246
-0.00447648378
-0.00171305985
-0.000475110578
0.00218666092
-0.00160423016
0.00559064061
-0.00308522746
0.00783427725
-0.00466469006
0.00893490942
-0.00616057383
0.0090398804
-0.00745844214
0.00834386512
-0.00849632115
0.00704398824
-0.00924694463
0.00531667706
-0.00970204069
0.00330955512
-0.00986075445
0.00114400178
-0.00972275525
-0.00107602903
-0.00928598343
-0.00325215897
-0.00854900065
-0.00527883693
-0.00751809704
-0.00703148152
-0.00621927713
-0.00835776811
-0.0047145579
-0.00907552642
-0.00312030256
-0.0089819456
-0.00162255982
-0.00787861421
-0.000480136749
-0.00561890681
-0.00219319651
-0.000563483783
0.00275014484
-0.00185696107
0.00688411792
-0.00349063232
0.00946794855
-0.00516238899
0.0106066661
-0.0066796652
0.0105571566
-0.00794251214
0.0096067121
-0.00891480764
0.00801628378
-0.00959641009
0.00599827956
-0.0100013151
0.00371446022
-0.0101429411
0.00128562778
-0.0100258838
-0.0011930863
-0.00964324072
-0.00363480197
-0.00897918615
-0.00594289145
-0.0080172901
-0.00799337752
-0.00675563269
-0.00961942547
-0.00522944113
-0.010601718
-0.00353999252
-0.0106713942
-0.00188425658
-0.00953435013
-0.000571636373
-0.00693152701
-0.00276483278
-0.000675948471
0.00342609337
-0.00214982753
0.00835799705
-0.00391097501
0.0112290961
-0.00560625124
0.0123019424
-0.00704802725
0.0119989327
-0.0081707609
0.0107294458
-0.00898119912
0.00882672203
-0.00951808207
0.00653516256
-0.00982460491
0.00402098311
-0.00993193745
0.00139296037
-0.00985079049
-0.00127423322
-0.00956873146
-0.00391686096
-0.00905248821
-0.00645913465
-0.00825621177
-0.00878965391
-0.00713822173
-0.0107374154
-0.00568945434
-0.0120504853
-0.00397535311
-0.0123854954
-0.00218751972
-0.0113221835
-0.000688081189
-0.00843096553
-0.00345291392
-0.000826648662
0.00425274198
-0.00249342107
0.0100247696
-0.00432418438
0.0130598595
-0.00592459568
0.0139023538
-0.00714291353
0.0132172506
-0.00797782165
0.0115643539
-0.00849943344
0.00934833384
-0.00879640158
0.00683213073
-0.00894570116
0.00417028274
-0.00899764708
0.00144490634
-0.00896948464
-0.0013023956
-0.00884345484
-0.00404289072
-0.00856804104
-0.00673454841
-0.00806387627
-0.00929381863
-0.00723867607
-0.0115626156
-0.00601823949
-0.0132709218
-0.00440132841
-0.0140024064
-0.00254175602
-0.0131817559
-0.000843508785
-0.0101292127
-0.0042964227
-0.00103952332
0.00529226518
-0.00289549017
0.0118807365
-0.00467633797
0.0148407074
-0.00598720133
0.0152132172
-0.00676819873
0.013998248
-0.00712210012
0.0119182554
-0.00720203297
0.00942826672
-0.00715181615
0.00678191395
-0.00708046894
0.00409893555
-0.0070543753
0.00141881275
-0.00709612712
-0.00126064373
-0.007184395
-0.00395462278
-0.0072531509
-0.00666579246
-0.00719198994
-0.00935497955
-0.00685341928
-0.0119011862
-0.00607860065
-0.0140457404
-0.0047588905
-0.0153221165
-0.00295227293
-0.0149883734
-0.00106146518
-0.0120200204
-0.00535788791
-0.00135025164
0.00664251672
-0.00334025606
0.013870741
-0.00483768104
0.0163381324
-0.00555404829
0.0159295845
-0.00561056922
0.014054769
-0.00525650326
0.0115641895
-0.00473591675
0.00890768027
-0.0042385982
0.00628459542
-0.00389222416
0.00375256154
-0.00376902872
0.00129561734
-0.00389327294
-0.00113639947
-0.00424393239
-0.00360396327
-0.00475113535
-0.00615858944
-0.00528769001
-0.00881842484
-0.00566131406
-0.0115275621
-0.00562172854
-0.0140853259
-0.00491056661
-0.0160332784
-0.00339873245
-0.0165002075
-0.00137654973
-0.0140422031
-0.00673443766
-0.00179037811
0.00843289485
-0.00371836133
0.0157987243
-0.0045018354
0.0171216065
-0.00418179656
0.0156095457
-0.00317451656
0.0130474891
-0.00189546707
0.01028514
-0.000655569832
0.0076677831
0.000344295223
0.00528473042
0.000987447976
0.00310940882
0.00121450015
0.0010685652
0.00100600283
-0.000927902111
0.000376740695
-0.0029747011
-0.000618094183
-0.00516375451
-0.00186474345
-0.00757177552
-0.0031625689
-0.0102297366
-0.00419629319
-0.0130516015
-0.00454020599
-0.0156893655
-0.00376394186
-0.0172764715
-0.00181751155
-0.0159886333
-0.0085519492
-0.00230764265
0.0107405376
-0.00363211765
0.0171231993
-0.00297442391
0.0164639128
-0.00106889375
0.0137040156
0.00129962229
0.0106789731
0.00360817667
0.00797658572
0.00556237794
0.00571358191
0.00701811535
0.00382899308
0.00791404656
0.00221347768
0.00822761928
0.000754992516
0.0079521282
-0.000652411009
0.0070896485
-0.00211222137
0.00565786594
-0.00373197192
0.00371317388
-0.00562708341
0.00139571611
-0.00791227881
-0.00100056617
-0.0106553192
-0.00294595436
-0.0137439773
-0.00363940846
-0.0165830174
-0.0023257229
-0.0173023188
-0.0108776721
-0.00251428299
0.0132548208
-0.00191886161
0.0165277778
0.00123204957
0.0133130016
0.00516960705
0.0097664581
0.00890995221
0.00693862792
0.0120477008
0.00483883717
0.0144621919
0.00329909088
0.0161533072
0.00213787788
0.0171566122
0.00121017271
0.0175035782
0.000408026609
0.0172053079
-0.000354140708
0.0162480108
-0.00115492423
0.0145966907
-0.00208065182
0.0122107379
-0.00324113056
0.00908363896
-0.0047851798
0.00532950016
-0.00690118036
0.00135184661
-0.00976632373
-0.00185633297
-0.0133748378
-0.00250263363
-0.0166560182
-0.0133803057
-0.00052587051
0.0137806915
0.00469116542
0.0113107418
0.0111379058
0.00686626122
0.0167191968
0.00418516704
0.0210437613
0.00261406344
0.0242217883
0.00166081022
0.0264601189
0.00106076037
0.0279395592
0.000658437669
0.0287868702
0.000362861759
0.0290749922
0.000119904644
0.0288276842
-0.000106832647
0.0280213581
-0.000348598109
0.026582498
-0.000641791692
0.0243820565
-0.001040689
0.0212339725
-0.0016370958
0.0169223244
-0.00258953219
0.011326164
-0.00417016328
0.00483124078
-0.0068799145
-0.000460418974
-0.0113643584
-0.0138407246
0.0137806914
0.0250914334
0.0319576948
0.0361428619
0.0387569254
0.0404177356
0.0414784958
0.0421369335
0.0424997952
0.0426197
0.0425128674
0.0421642694
0.0415224777
0.0404817887
0.0388446929
0.0362551607
0.0320849974
0.025205083
0.0138407246
)
;

boundaryField
{
    top
    {
        type            calculated;
        value           uniform 0;
    }
    left
    {
        type            calculated;
        value           uniform 0;
    }
    right
    {
        type            calculated;
        value           uniform 0;
    }
    bottom
    {
        type            calculated;
        value           uniform 0;
    }
    back0
    {
        type            empty;
        value           nonuniform 0();
    }
    front1
    {
        type            empty;
        value           nonuniform 0();
    }
}


// ************************************************************************* //
