/*--------------------------------*- C++ -*----------------------------------*\
| =========                 |                                                 |
| \\      /  F ield         | OpenFOAM: The Open Source CFD Toolbox           |
|  \\    /   O peration     | Version:  3.0.1                                 |
|   \\  /    A nd           | Web:      www.OpenFOAM.org                      |
|    \\/     M anipulation  |                                                 |
\*---------------------------------------------------------------------------*/
FoamFile
{
    version     2.0;
    format      ascii;
    class       volVectorField;
    location    "2";
    object      U;
}
// * * * * * * * * * * * * * * * * * * * * * * * * * * * * * * * * * * * * * //

dimensions      [0 1 -1 0 0 0 0];

internalField   nonuniform List<vector> 
400
(
(0.000259034712 -0.000255129329 0)
(0.000163171381 0.000103478599 0)
(-0.0011413056 0.000562916657 0)
(-0.0034516452 0.000892674807 0)
(-0.0063745713 0.00105975522 0)
(-0.0095013851 0.00107585871 0)
(-0.0124624522 0.000965763003 0)
(-0.0149528238 0.000758487829 0)
(-0.0167424777 0.000482989528 0)
(-0.017678116 0.000166940616 0)
(-0.0176825151 -0.000162991539 0)
(-0.0167540724 -0.000480344151 0)
(-0.0149673939 -0.000757971988 0)
(-0.0124747387 -0.000967396817 0)
(-0.00950714711 -0.00107880216 0)
(-0.00637237816 -0.00106259171 0)
(-0.00344362702 -0.000894003112 0)
(-0.00113223516 -0.000562118882 0)
(0.000168791999 -0.000101408366 0)
(0.000260558778 0.000256260998 0)
(-6.36660728e-05 -0.000192837651 0)
(-0.0015638115 0.00161120796 0)
(-0.00562134661 0.00360993855 0)
(-0.0116624353 0.00506516726 0)
(-0.0188877036 0.00579892282 0)
(-0.0264616946 0.00581605685 0)
(-0.0335808445 0.00520264566 0)
(-0.0395528903 0.00408408362 0)
(-0.0438411356 0.0026008042 0)
(-0.0460817194 0.000897209517 0)
(-0.0460899809 -0.000881780678 0)
(-0.0438629572 -0.00259069795 0)
(-0.0395804521 -0.00408266202 0)
(-0.0336043455 -0.005209975 0)
(-0.0264731039 -0.0058287022 0)
(-0.0188840544 -0.0058111195 0)
(-0.0116472924 -0.00507121867 0)
(-0.00560339774 -0.00360722858 0)
(-0.00155190643 -0.00160273184 0)
(-6.01299648e-05 0.000198536866 0)
(-0.000508072449 0.00103299215 0)
(-0.00364518457 0.00566227887 0)
(-0.0104978021 0.0102120447 0)
(-0.0199305296 0.0134777666 0)
(-0.030779361 0.0150698379 0)
(-0.0419250127 0.0149606008 0)
(-0.0522861905 0.0133219573 0)
(-0.0609228011 0.0104364067 0)
(-0.0671017895 0.00663926519 0)
(-0.070324113 0.00228747665 0)
(-0.0703359447 -0.00225413361 0)
(-0.0671333852 -0.00661751915 0)
(-0.0609637754 -0.0104336454 0)
(-0.0523232411 -0.0133384726 0)
(-0.0419466826 -0.0149890934 0)
(-0.0307804319 -0.0150978443 0)
(-0.0199143789 -0.0134927122 0)
(-0.0104753183 -0.0102076246 0)
(-0.00362889352 -0.0056438856 0)
(-0.000502880828 -0.00101879314 0)
(-0.000901534251 0.00337413055 0)
(-0.00561473129 0.0121026835 0)
(-0.0152160442 0.0199185471 0)
(-0.0278960397 0.0253348418 0)
(-0.0420806638 0.0278175072 0)
(-0.0563930982 0.0273454107 0)
(-0.0695396407 0.0242145136 0)
(-0.0804105046 0.018908449 0)
(-0.0881486992 0.0120071455 0)
(-0.0921742265 0.00413332712 0)
(-0.0921927286 -0.00407342898 0)
(-0.0881990156 -0.0119670904 0)
(-0.0804786084 -0.0189011758 0)
(-0.0696069324 -0.0242412158 0)
(-0.0564423212 -0.0273944616 0)
(-0.0421017904 -0.0278680892 0)
(-0.0278901595 -0.0253649885 0)
(-0.0151953184 -0.0199157324 0)
(-0.00559611543 -0.0120735463 0)
(-0.000894871984 -0.00334870508 0)
(-0.0012487836 0.0067191334 0)
(-0.00746754399 0.0208066754 0)
(-0.0197752746 0.0325561469 0)
(-0.0356414916 0.0403582928 0)
(-0.0530356913 0.0436522579 0)
(-0.0703148263 0.042509418 0)
(-0.085999539 0.0374147897 0)
(-0.0988570107 0.0291035643 0)
(-0.107956655 0.0184400351 0)
(-0.112678282 0.0063446742 0)
(-0.112709219 -0.00624106559 0)
(-0.108042237 -0.0183675577 0)
(-0.0989773731 -0.0290832535 0)
(-0.0861273461 -0.0374502581 0)
(-0.0704227677 -0.0425846815 0)
(-0.0531045823 -0.0437362436 0)
(-0.0356666379 -0.0404160447 0)
(-0.0197684307 -0.0325645944 0)
(-0.00745105805 -0.0207705729 0)
(-0.00124127132 -0.00668126107 0)
(-0.00158017573 0.011010689 0)
(-0.00929263956 0.0317466022 0)
(-0.0243212639 0.0481289011 0)
(-0.0433744032 0.058536053 0)
(-0.0639230404 0.0625112577 0)
(-0.0840449548 0.0603351224 0)
(-0.102093622 0.0527733982 0)
(-0.11675195 0.0408774697 0)
(-0.127060256 0.0258362067 0)
(-0.132395304 0.00888909805 0)
(-0.132446588 -0.00871106214 0)
(-0.127203927 -0.0257054044 0)
(-0.116959608 -0.0408271933 0)
(-0.102324854 -0.0528124353 0)
(-0.0842568099 -0.0604436733 0)
(-0.0640811247 -0.0626456924 0)
(-0.0434628895 -0.0586432847 0)
(-0.0243482619 -0.0481684408 0)
(-0.00928636243 -0.0317151668 0)
(-0.00157322866 -0.010962112 0)
(-0.00192625768 0.0162550651 0)
(-0.0111929039 0.0449648478 0)
(-0.0290279078 0.0666850156 0)
(-0.0513080707 0.0798755861 0)
(-0.0749610944 0.0843338596 0)
(-0.0977822979 0.0806969555 0)
(-0.117988306 0.0701286072 0)
(-0.134227487 0.0540740327 0)
(-0.145564327 0.0340860976 0)
(-0.151415624 0.0117325314 0)
(-0.151496518 -0.0114321776 0)
(-0.145793054 -0.033855765 0)
(-0.134564571 -0.0539652683 0)
(-0.11837587 -0.0701597861 0)
(-0.0981555776 -0.0808461389 0)
(-0.075263074 -0.0845426773 0)
(-0.0515043847 -0.0800662921 0)
(-0.0291175764 -0.0667897445 0)
(-0.0112092909 -0.0449617387 0)
(-0.00192231694 -0.0162027104 0)
(-0.00231586528 0.0225188822 0)
(-0.0132686127 0.0605807088 0)
(-0.0340569807 0.0883110753 0)
(-0.0596048778 0.104368548 0)
(-0.0862453101 0.108997319 0)
(-0.11150853 0.103380048 0)
(-0.133533119 0.0892237662 0)
(-0.151009571 0.0684555285 0)
(-0.163100865 0.0430258757 0)
(-0.169320782 0.0148224052 0)
(-0.169440513 -0.01433296 0)
(-0.163441912 -0.0426374027 0)
(-0.151519883 -0.0682455413 0)
(-0.134134154 -0.0892266219 0)
(-0.112108181 -0.103575265 0)
(-0.0867560091 -0.109310715 0)
(-0.0599644119 -0.104690502 0)
(-0.0342470586 -0.0885331246 0)
(-0.0133249278 -0.0606460652 0)
(-0.00231859214 -0.0224774399 0)
(-0.00277919438 0.0299257471 0)
(-0.0156192287 0.0787852703 0)
(-0.0395457691 0.113109744 0)
(-0.0683430284 0.131941953 0)
(-0.0976948819 0.136245334 0)
(-0.124920479 0.12799813 0)
(-0.148185646 0.109628238 0)
(-0.166341071 0.0836380109 0)
(-0.178753051 0.0523950387 0)
(-0.185108337 0.0180718641 0)
(-0.185273812 -0.0173093049 0)
(-0.179227546 -0.0517729638 0)
(-0.167060693 -0.0832686558 0)
(-0.149050936 -0.109570385 0)
(-0.125809071 -0.128239198 0)
(-0.0984818593 -0.136696932 0)
(-0.0689278838 -0.132456229 0)
(-0.0398814826 -0.113521707 0)
(-0.0157375872 -0.0789798378 0)
(-0.0027936535 -0.0299204522 0)
(-0.00335558856 0.0386598265 0)
(-0.0183589907 0.0998286231 0)
(-0.0456106462 0.141148992 0)
(-0.0774898416 0.162368216 0)
(-0.108991001 0.165574057 0)
(-0.13734048 0.153875595 0)
(-0.160905745 0.130632487 0)
(-0.178870108 0.0990104197 0)
(-0.190943383 0.0617852082 0)
(-0.197080765 0.0213406222 0)
(-0.197293197 -0.0202106654 0)
(-0.191556675 -0.0608422204 0)
(-0.17981291 -0.0984096881 0)
(-0.162062656 -0.130467249 0)
(-0.138561437 -0.154151347 0)
(-0.110110876 -0.166194667 0)
(-0.0783600745 -0.16314486 0)
(-0.0461409195 -0.141843441 0)
(-0.018565755 -0.100236641 0)
(-0.00338840733 -0.0387292543 0)
(-0.00410769371 0.0489852939 0)
(-0.0216450024 0.124008517 0)
(-0.0523542043 0.172385462 0)
(-0.0868591299 0.195134284 0)
(-0.119481312 0.196079159 0)
(-0.147583893 0.179902904 0)
(-0.170007085 0.151130517 0)
(-0.186501479 0.113650945 0)
(-0.197291786 0.0705900761 0)
(-0.202708796 0.0244160522 0)
(-0.202959327 -0.022828734 0)
(-0.198020707 -0.069238623 0)
(-0.187639344 -0.112739124 0)
(-0.171435199 -0.150796264 0)
(-0.149136088 -0.180184114 0)
(-0.120957506 -0.196885877 0)
(-0.0880572011 -0.196241898 0)
(-0.0531240572 -0.173469175 0)
(-0.0219690724 -0.124737851 0)
(-0.00416716393 -0.0491838298 0)
(-0.00514672282 0.0612936568 0)
(-0.0257192215 0.151656868 0)
(-0.0598573347 0.206540859 0)
(-0.0960163569 0.229247352 0)
(-0.128010539 0.226252053 0)
(-0.153752939 0.204366551 0)
(-0.172950783 0.169499907 0)
(-0.186211839 0.126253693 0)
(-0.194456683 0.0779668296 0)
(-0.19848898 0.0269985698 0)
(-0.198753981 -0.0248921095 0)
(-0.195235531 -0.0761392927 0)
(-0.187451787 -0.124956375 0)
(-0.174551722 -0.16892319 0)
(-0.155556653 -0.2045983 0)
(-0.129800734 -0.227232062 0)
(-0.0975421272 -0.230734027 0)
(-0.0608943028 -0.208120368 0)
(-0.0261884417 -0.152833974 0)
(-0.00524278173 -0.061693099 0)
(-0.00667695536 0.0761991917 0)
(-0.0309618124 0.183102316 0)
(-0.0681131767 0.242881286 0)
(-0.104061123 0.262937306 0)
(-0.132609118 0.253713729 0)
(-0.152911314 0.224767301 0)
(-0.166064268 0.183506297 0)
(-0.173836895 0.135093394 0)
(-0.177984695 0.0828291847 0)
(-0.17983023 0.0286992407 0)
(-0.180068019 -0.0260728455 0)
(-0.178694673 -0.0805072252 0)
(-0.175001633 -0.133363405 0)
(-0.167632221 -0.182612029 0)
(-0.154769961 -0.224864001 0)
(-0.134563334 -0.254804108 0)
(-0.105835097 -0.264801055 0)
(-0.0694045899 -0.245035404 0)
(-0.0315960012 -0.184858166 0)
(-0.00682084521 -0.0768885792 0)
(-0.00906576227 0.0947026405 0)
(-0.0379246433 0.218538325 0)
(-0.076791385 0.279804167 0)
(-0.109143736 0.293208672 0)
(-0.129924731 0.274900166 0)
(-0.140578601 0.237679778 0)
(-0.144175981 0.19029653 0)
(-0.14385822 0.138083662 0)
(-0.142218391 0.0839087258 0)
(-0.141028907 0.0290636781 0)
(-0.141180996 -0.0260145498 0)
(-0.142689442 -0.0811589712 0)
(-0.144683434 -0.135932441 0)
(-0.145383993 -0.189029524 0)
(-0.14214947 -0.237529641 0)
(-0.131741769 -0.275969883 0)
(-0.110959043 -0.295359029 0)
(-0.0782481883 -0.282539181 0)
(-0.0387218165 -0.220978845 0)
(-0.00926852193 -0.0957839725 0)
(-0.0129064955 0.11840854 0)
(-0.047189698 0.257615167 0)
(-0.0845412804 0.314085569 0)
(-0.107433026 0.315236803 0)
(-0.114222049 0.284803041 0)
(-0.109987083 0.238796062 0)
(-0.100191611 0.1866111 0)
(-0.0892602704 0.133024631 0)
(-0.0803513396 0.0799415556 0)
(-0.0754276668 0.027643234 0)
(-0.0754289778 -0.0243954569 0)
(-0.0803895567 -0.0769480859 0)
(-0.089429898 -0.130558968 0)
(-0.100620787 -0.18497228 0)
(-0.110789499 -0.238285715 0)
(-0.115426942 -0.285651539 0)
(-0.108905907 -0.317458341 0)
(-0.0859441548 -0.317272947 0)
(-0.0480970331 -0.260766777 0)
(-0.0131729816 -0.119982479 0)
(-0.0188565019 0.149839411 0)
(-0.0584939881 0.298411262 0)
(-0.087123826 0.339552563 0)
(-0.0910298026 0.321660362 0)
(-0.0757519629 0.276980954 0)
(-0.0511223721 0.223384749 0)
(-0.0247385441 0.16939059 0)
(-0.00161211584 0.118146569 0)
(0.0152214308 0.0700342526 0)
(0.0241045275 0.0241323053 0)
(0.0243022996 -0.0210356847 0)
(0.0157673058 -0.0671084051 0)
(-0.000856607899 -0.115596931 0)
(-0.0239880064 -0.167483972 0)
(-0.0506315593 -0.222453471 0)
(-0.0757440667 -0.277375536 0)
(-0.0915838384 -0.323604381 0)
(-0.0880579888 -0.342864163 0)
(-0.059347679 -0.302137067 0)
(-0.0191649202 -0.151974068 0)
(-0.0264625439 0.193171191 0)
(-0.0677000376 0.335014321 0)
(-0.0729896193 0.344651848 0)
(-0.044114795 0.301756047 0)
(0.00159043191 0.244051744 0)
(0.0502178714 0.187354314 0)
(0.0938180442 0.136864135 0)
(0.128367535 0.0929595296 0)
(0.152066821 0.0541905794 0)
(0.16422558 0.0185620088 0)
(0.164617878 -0.0160354742 0)
(0.153198337 -0.0517325297 0)
(0.130098913 -0.0906764485 0)
(0.0959095872 -0.134939065 0)
(0.0523327111 -0.186079793 0)
(0.00333419519 -0.243831943 0)
(-0.0430904959 -0.30301398 0)
(-0.0728279139 -0.347547205 0)
(-0.0681295093 -0.338913014 0)
(-0.0267083256 -0.195840587 0)
(-0.0289527579 0.251331312 0)
(-0.0581036117 0.350741897 0)
(-0.014017075 0.309539067 0)
(0.0632657963 0.242400596 0)
(0.14294696 0.180310318 0)
(0.212723819 0.129919437 0)
(0.268472774 0.0905925622 0)
(0.309449323 0.0595774642 0)
(0.336245825 0.0340345957 0)
(0.349654592 0.011548776 0)
(0.350147695 -0.00995156257 0)
(0.337700437 -0.0324236453 0)
(0.311782816 -0.0579641665 0)
(0.271519281 -0.0890461159 0)
(0.216198152 -0.128613178 0)
(0.146424033 -0.179576156 0)
(0.0662122514 -0.242735896 0)
(-0.0121382487 -0.311417368 0)
(-0.0574832349 -0.354042304 0)
(-0.0288312473 -0.254177677 0)
(0.0132195545 0.289507494 0)
(0.0296816836 0.30285456 0)
(0.15417969 0.21406881 0)
(0.282833703 0.142345219 0)
(0.382969604 0.0939486639 0)
(0.45713086 0.0619624474 0)
(0.510502493 0.0405509437 0)
(0.547090515 0.0255474106 0)
(0.569959924 0.0142061154 0)
(0.581116173 0.00473812358 0)
(0.581523401 -0.00414301196 0)
(0.571184991 -0.01357247 0)
(0.549136895 -0.0248412699 0)
(0.513349854 -0.0397538559 0)
(0.460686704 -0.0611006455 0)
(0.387005993 -0.0931595574 0)
(0.286924354 -0.141969627 0)
(0.157626109 -0.214616955 0)
(0.0318291838 -0.304532301 0)
(0.0142600289 -0.291324499 0)
(0.304245119 0.147454746 0)
(0.40556337 0.127829556 0)
(0.569531339 0.0747835015 0)
(0.686121676 0.0418385764 0)
(0.753522533 0.023842972 0)
(0.794598211 0.0139302362 0)
(0.820887686 0.0082980209 0)
(0.837586479 0.00488893146 0)
(0.84752229 0.00260052885 0)
(0.852223003 0.000835247182 0)
(0.85235081 -0.000772308002 0)
(0.847917609 -0.00252075558 0)
(0.838285537 -0.00477209335 0)
(0.821949449 -0.00811771665 0)
(0.796091298 -0.0136558016 0)
(0.75550285 -0.0234583764 0)
(0.688596477 -0.041390887 0)
(0.572194811 -0.0744403301 0)
(0.4075242 -0.12786856 0)
(0.305169545 -0.147795834 0)
)
;

boundaryField
{
    top
    {
        type            fixedValue;
        value           uniform (1 0 0);
    }
    left
    {
        type            fixedValue;
        value           uniform (0 0 0);
    }
    right
    {
        type            fixedValue;
        value           uniform (0 0 0);
    }
    bottom
    {
        type            fixedValue;
        value           uniform (0 0 0);
    }
    back0
    {
        type            empty;
    }
    front1
    {
        type            empty;
    }
}


// ************************************************************************* //
