/*--------------------------------*- C++ -*----------------------------------*\
| =========                 |                                                 |
| \\      /  F ield         | OpenFOAM: The Open Source CFD Toolbox           |
|  \\    /   O peration     | Version:  3.0.1                                 |
|   \\  /    A nd           | Web:      www.OpenFOAM.org                      |
|    \\/     M anipulation  |                                                 |
\*---------------------------------------------------------------------------*/
FoamFile
{
    version     2.0;
    format      ascii;
    class       volVectorField;
    location    "2";
    object      vorticity;
}
// * * * * * * * * * * * * * * * * * * * * * * * * * * * * * * * * * * * * * //

dimensions      [0 0 -1 0 0 0 0];

internalField   nonuniform List<vector> 
400
(
(0 -0 -0.00347019369)
(0 -0 0.0221868611)
(0 -0 0.0755184842)
(0 -0 0.156109191)
(0 -0 0.254454588)
(0 -0 0.358690875)
(0 -0 0.457259258)
(0 -0 0.540229406)
(0 -0 0.599920661)
(0 -0 0.631138543)
(0 -0 0.631252112)
(0 -0 0.600220492)
(0 -0 0.540607933)
(0 -0 0.45758254)
(0 -0 0.358850561)
(0 -0 0.254412316)
(0 -0 0.155913922)
(0 -0 0.0752822765)
(0 -0 0.0220149431)
(0 -0 -0.00355281445)
(0 -0 0.0218547747)
(0 -0 0.0761113215)
(0 -0 0.128104558)
(0 -0 0.186678687)
(0 -0 0.251556793)
(0 -0 0.318273504)
(0 -0 0.380917651)
(0 -0 0.433681358)
(0 -0 0.471724377)
(0 -0 0.491634121)
(0 -0 0.491655221)
(0 -0 0.471784315)
(0 -0 0.433771045)
(0 -0 0.381024622)
(0 -0 0.31838391)
(0 -0 0.251655373)
(0 -0 0.186746428)
(0 -0 0.1281157)
(0 -0 0.0760345096)
(0 -0 0.0216763458)
(0 -0 0.075331392)
(0 -0 0.132299723)
(0 -0 0.174101853)
(0 -0 0.210913976)
(0 -0 0.246757944)
(0 -0 0.28183523)
(0 -0 0.314346021)
(0 -0 0.341749222)
(0 -0 0.361586335)
(0 -0 0.371991083)
(0 -0 0.371977519)
(0 -0 0.361565466)
(0 -0 0.341772028)
(0 -0 0.314471389)
(0 -0 0.282098456)
(0 -0 0.247141172)
(0 -0 0.211330868)
(0 -0 0.174407473)
(0 -0 0.132330405)
(0 -0 0.0749742076)
(0 -0 0.162175252)
(0 -0 0.20366776)
(0 -0 0.225096308)
(0 -0 0.236099221)
(0 -0 0.242668992)
(0 -0 0.2478682)
(0 -0 0.252763868)
(0 -0 0.257268415)
(0 -0 0.260797436)
(0 -0 0.262735945)
(0 -0 0.262728568)
(0 -0 0.26081105)
(0 -0 0.257394723)
(0 -0 0.253108192)
(0 -0 0.248492117)
(0 -0 0.243536235)
(0 -0 0.237046158)
(0 -0 0.225845546)
(0 -0 0.203891918)
(0 -0 0.161606419)
(0 -0 0.282044503)
(0 -0 0.295149218)
(0 -0 0.286568371)
(0 -0 0.265744745)
(0 -0 0.239935018)
(0 -0 0.214143884)
(0 -0 0.191481276)
(0 -0 0.173666908)
(0 -0 0.161526667)
(0 -0 0.155399768)
(0 -0 0.155416275)
(0 -0 0.161627235)
(0 -0 0.173982992)
(0 -0 0.192164936)
(0 -0 0.215285032)
(0 -0 0.241479711)
(0 -0 0.267443792)
(0 -0 0.287984153)
(0 -0 0.295735803)
(0 -0 0.281301906)
(0 -0 0.434347653)
(0 -0 0.40843572)
(0 -0 0.36042084)
(0 -0 0.300489357)
(0 -0 0.237244725)
(0 -0 0.177296121)
(0 -0 0.125311143)
(0 -0 0.084332848)
(0 -0 0.0561930035)
(0 -0 0.0419007316)
(0 -0 0.0419279655)
(0 -0 0.0563468584)
(0 -0 0.08480167)
(0 -0 0.126320439)
(0 -0 0.178995528)
(0 -0 0.239588803)
(0 -0 0.303149984)
(0 -0 0.362772636)
(0 -0 0.409645616)
(0 -0 0.433583244)
(0 -0 0.619556025)
(0 -0 0.544059236)
(0 -0 0.446464551)
(0 -0 0.338793186)
(0 -0 0.231436391)
(0 -0 0.132583228)
(0 -0 0.048165742)
(0 -0 -0.017848886)
(0 -0 -0.063008923)
(0 -0 -0.085927972)
(0 -0 -0.085943714)
(0 -0 -0.062951057)
(0 -0 -0.017437461)
(0 -0 0.049284294)
(0 -0 0.134684799)
(0 -0 0.234547312)
(0 -0 0.342544552)
(0 -0 0.450033501)
(0 -0 0.546255995)
(0 -0 0.619098126)
(0 -0 0.839525277)
(0 -0 0.702185179)
(0 -0 0.543057005)
(0 -0 0.377212014)
(0 -0 0.217452875)
(0 -0 0.073646283)
(0 -0 -0.047271795)
(0 -0 -0.140843065)
(0 -0 -0.204443993)
(0 -0 -0.236661227)
(0 -0 -0.236825139)
(0 -0 -0.204780893)
(0 -0 -0.140930972)
(0 -0 -0.046546577)
(0 -0 0.075694003)
(0 -0 0.221035483)
(0 -0 0.382010895)
(0 -0 0.54808343)
(0 -0 0.70583981)
(0 -0 0.839948417)
(0 -0 1.09750741)
(0 -0 0.882743749)
(0 -0 0.647103482)
(0 -0 0.410205538)
(0 -0 0.188018679)
(0 -0 -0.00785146)
(0 -0 -0.169874931)
(0 -0 -0.293726623)
(0 -0 -0.377236288)
(0 -0 -0.419443606)
(0 -0 -0.419921439)
(0 -0 -0.378445879)
(0 -0 -0.295043942)
(0 -0 -0.170420402)
(0 -0 -0.00673291)
(0 -0 0.191378359)
(0 -0 0.415708876)
(0 -0 0.653702521)
(0 -0 0.88842082)
(0 -0 1.09970105)
(0 -0 1.39816949)
(0 -0 1.08514939)
(0 -0 0.753480281)
(0 -0 0.429411665)
(0 -0 0.132938091)
(0 -0 -0.12278156)
(0 -0 -0.330437363)
(0 -0 -0.486868708)
(0 -0 -0.591310625)
(0 -0 -0.643954146)
(0 -0 -0.644973276)
(0 -0 -0.594058617)
(0 -0 -0.490463776)
(0 -0 -0.333573959)
(0 -0 -0.12400401)
(0 -0 0.134821337)
(0 -0 0.434805433)
(0 -0 0.761507936)
(0 -0 1.09345672)
(0 -0 1.40339406)
(0 -0 1.74784945)
(0 -0 1.30760399)
(0 -0 0.853724555)
(0 -0 0.422202123)
(0 -0 0.03788158)
(0 -0 -0.28536183)
(0 -0 -0.54206921)
(0 -0 -0.731987099)
(0 -0 -0.857215928)
(0 -0 -0.920105951)
(0 -0 -0.921938912)
(0 -0 -0.86231534)
(0 -0 -0.73918764)
(0 -0 -0.54955924)
(0 -0 -0.29094397)
(0 -0 0.03632074)
(0 -0 0.425987547)
(0 -0 0.862574303)
(0 -0 1.31908032)
(0 -0 1.75776055)
(0 -0 2.15519786)
(0 -0 1.54564012)
(0 -0 0.933494564)
(0 -0 0.369131871)
(0 -0 -0.11752995)
(0 -0 -0.51424725)
(0 -0 -0.82055675)
(0 -0 -1.04197661)
(0 -0 -1.18562214)
(0 -0 -1.25737505)
(0 -0 -1.26029171)
(0 -0 -1.19390299)
(0 -0 -1.05421608)
(0 -0 -0.83444903)
(0 -0 -0.52674999)
(0 -0 -0.12529899)
(0 -0 0.368895899)
(0 -0 0.941805857)
(0 -0 1.56054198)
(0 -0 2.17180754)
(0 -0 2.63220547)
(0 -0 1.78887516)
(0 -0 0.967690403)
(0 -0 0.239598221)
(0 -0 -0.36255813)
(0 -0 -0.8338177)
(0 -0 -1.18448709)
(0 -0 -1.43030731)
(0 -0 -1.58632445)
(0 -0 -1.66362103)
(0 -0 -1.66779451)
(0 -0 -1.59836648)
(0 -0 -1.44873157)
(0 -0 -1.20668325)
(0 -0 -0.85599262)
(0 -0 -0.37996019)
(0 -0 0.231856198)
(0 -0 0.972967745)
(0 -0 1.806802)
(0 -0 2.65772485)
(0 -0 3.19470506)
(0 -0 2.01329412)
(0 -0 0.910984507)
(0 -0 -0.01532098)
(0 -0 -0.73915963)
(0 -0 -1.27527867)
(0 -0 -1.65468773)
(0 -0 -1.90964429)
(0 -0 -2.06653339)
(0 -0 -2.14325839)
(0 -0 -2.14861691)
(0 -0 -2.08223007)
(0 -0 -1.93442288)
(0 -0 -1.68608634)
(0 -0 -1.30920821)
(0 -0 -0.7696578)
(0 -0 -0.03498488)
(0 -0 0.909197489)
(0 -0 2.0325624)
(0 -0 3.23114954)
(0 -0 3.85814447)
(0 -0 2.16246374)
(0 -0 0.67954077)
(0 -0 -0.473964614)
(0 -0 -1.30613509)
(0 -0 -1.8764817)
(0 -0 -2.25208868)
(0 -0 -2.48915649)
(0 -0 -2.62821219)
(0 -0 -2.69470447)
(0 -0 -2.70074616)
(0 -0 -2.64620259)
(0 -0 -2.5185102)
(0 -0 -2.29122734)
(0 -0 -1.9219717)
(0 -0 -1.35170328)
(0 -0 -0.509966126)
(0 -0 0.665013645)
(0 -0 2.1791633)
(0 -0 3.90645654)
(0 -0 4.61806721)
(0 -0 2.10223492)
(0 -0 0.116974389)
(0 -0 -1.2588984)
(0 -0 -2.14088094)
(0 -0 -2.67795318)
(0 -0 -2.99247835)
(0 -0 -3.16984143)
(0 -0 -3.26432424)
(0 -0 -3.30723184)
(0 -0 -3.31287566)
(0 -0 -3.2814914)
(0 -0 -3.19904378)
(0 -0 -3.03386914)
(0 -0 -2.73013774)
(0 -0 -2.19912047)
(0 -0 -1.31304038)
(0 -0 0.083510731)
(0 -0 2.10922571)
(0 -0 4.67646479)
(0 -0 5.38281768)
(0 -0 1.51090281)
(0 -0 -1.06365025)
(0 -0 -2.54895703)
(0 -0 -3.33100656)
(0 -0 -3.710338)
(0 -0 -3.87606102)
(0 -0 -3.93734994)
(0 -0 -3.95421915)
(0 -0 -3.95776118)
(0 -0 -3.96139934)
(0 -0 -3.96574105)
(0 -0 -3.95845959)
(0 -0 -3.90910632)
(0 -0 -3.75722589)
(0 -0 -3.39102287)
(0 -0 -2.61511352)
(0 -0 -1.11818774)
(0 -0 1.49842174)
(0 -0 5.44419928)
(0 -0 5.62391111)
(0 -0 -0.391739662)
(0 -0 -3.3551061)
(0 -0 -4.56177247)
(0 -0 -4.93860331)
(0 -0 -4.96630744)
(0 -0 -4.87026422)
(0 -0 -4.75280947)
(0 -0 -4.65921791)
(0 -0 -4.60876751)
(0 -0 -4.60877944)
(0 -0 -4.65999258)
(0 -0 -4.75660453)
(0 -0 -4.88089278)
(0 -0 -4.98884033)
(0 -0 -4.97794516)
(0 -0 -4.61856062)
(0 -0 -3.41760431)
(0 -0 -0.427190021)
(0 -0 5.67251626)
(0 -0 2.59164177)
(0 -0 -5.39105666)
(0 -0 -7.44057755)
(0 -0 -7.42976026)
(0 -0 -6.90958345)
(0 -0 -6.35272112)
(0 -0 -5.88829949)
(0 -0 -5.54481984)
(0 -0 -5.32085752)
(0 -0 -5.20917538)
(0 -0 -5.20513709)
(0 -0 -5.3091543)
(0 -0 -5.52684107)
(0 -0 -5.86689544)
(0 -0 -6.33298847)
(0 -0 -6.89947798)
(0 -0 -7.43841623)
(0 -0 -7.46895734)
(0 -0 -5.41714979)
(0 -0 2.61856008)
(0 -0 -14.0725102)
(0 -0 -16.3742619)
(0 -0 -13.6227995)
(0 -0 -10.8198515)
(0 -0 -8.91416203)
(0 -0 -7.6381588)
(0 -0 -6.77651126)
(0 -0 -6.21020498)
(0 -0 -5.8657147)
(0 -0 -5.70033661)
(0 -0 -5.69481792)
(0 -0 -5.84897185)
(0 -0 -6.18174529)
(0 -0 -6.73584405)
(0 -0 -7.58562658)
(0 -0 -8.85226242)
(0 -0 -10.7546112)
(0 -0 -13.5665675)
(0 -0 -16.3400212)
(0 -0 -14.0490603)
)
;

boundaryField
{
    top
    {
        type            calculated;
        value           nonuniform List<vector> 
20
(
(0 -0 -25.0773522)
(0 -0 -24.5041776)
(0 -0 -18.0786562)
(0 -0 -13.0645383)
(0 -0 -10.1381821)
(0 -0 -8.37152107)
(0 -0 -7.25490561)
(0 -0 -6.55351576)
(0 -0 -6.13964524)
(0 -0 -5.94480825)
(0 -0 -5.93952763)
(0 -0 -6.12329349)
(0 -0 -6.52454813)
(0 -0 -7.21085912)
(0 -0 -8.30975468)
(0 -0 -10.0572369)
(0 -0 -12.9659605)
(0 -0 -17.9769843)
(0 -0 -24.432587)
(0 -0 -25.0365743)
)
;
    }
    left
    {
        type            calculated;
        value           nonuniform List<vector> 
20
(
(0 -0 -0.0121588596)
(0 -0 -4.243443e-05)
(0 -0 0.0496983678)
(0 -0 0.142372334)
(0 -0 0.275551751)
(0 -0 0.447202301)
(0 -0 0.657559499)
(0 -0 0.909284655)
(0 -0 1.20742712)
(0 -0 1.55967805)
(0 -0 1.9773231)
(0 -0 2.47743889)
(0 -0 3.08715806)
(0 -0 3.85040102)
(0 -0 4.834249)
(0 -0 6.12913692)
(0 -0 7.8278102)
(0 -0 9.6564315)
(0 -0 8.24832099)
(0 -0 -10.9271634)
)
;
    }
    right
    {
        type            calculated;
        value           nonuniform List<vector> 
20
(
(0 -0 -0.0122547281)
(0 -0 -0.00030707858)
(0 -0 0.0490991458)
(0 -0 0.141332108)
(0 -0 0.27403401)
(0 -0 0.445294936)
(0 -0 0.655562051)
(0 -0 0.907810962)
(0 -0 1.20751624)
(0 -0 1.56290528)
(0 -0 1.98589694)
(0 -0 2.49426077)
(0 -0 3.11580057)
(0 -0 3.89488026)
(0 -0 4.89826314)
(0 -0 6.21431616)
(0 -0 7.93028675)
(0 -0 9.75742353)
(0 -0 8.31297204)
(0 -0 -10.8938709)
)
;
    }
    bottom
    {
        type            calculated;
        value           nonuniform List<vector> 
20
(
(0 -0 -0.0118778958)
(0 -0 0.00165360462)
(0 -0 0.0535441861)
(0 -0 0.143034194)
(0 -0 0.256814691)
(0 -0 0.379115482)
(0 -0 0.495324379)
(0 -0 0.593285217)
(0 -0 0.663783636)
(0 -0 0.700664829)
(0 -0 0.700827756)
(0 -0 0.664213092)
(0 -0 0.593825229)
(0 -0 0.495781246)
(0 -0 0.379333935)
(0 -0 0.256743117)
(0 -0 0.142749809)
(0 -0 0.0532153539)
(0 -0 0.00143211884)
(0 -0 -0.0119708774)
)
;
    }
    back0
    {
        type            empty;
    }
    front1
    {
        type            empty;
    }
}


// ************************************************************************* //
