/*--------------------------------*- C++ -*----------------------------------*\
| =========                 |                                                 |
| \\      /  F ield         | OpenFOAM: The Open Source CFD Toolbox           |
|  \\    /   O peration     | Version:  3.0.1                                 |
|   \\  /    A nd           | Web:      www.OpenFOAM.org                      |
|    \\/     M anipulation  |                                                 |
\*---------------------------------------------------------------------------*/
FoamFile
{
    version     2.0;
    format      ascii;
    class       volVectorField;
    location    "2";
    object      W;
}
// * * * * * * * * * * * * * * * * * * * * * * * * * * * * * * * * * * * * * //

dimensions      [0 1 -1 0 0 0 0];

internalField   nonuniform List<vector> 
400
(
(2.31414796e-08 4.06552105e-08 0)
(-1.02377221e-07 1.729921e-07 0)
(-2.84812677e-07 2.98149866e-07 0)
(-1.09588774e-07 2.16331371e-07 0)
(3.26434099e-07 -9.92141933e-08 0)
(6.78435576e-07 -4.63192835e-07 0)
(5.92251806e-07 -5.92390726e-07 0)
(1.08727979e-08 -3.23351004e-07 0)
(-7.20341207e-07 2.28063007e-07 0)
(-1.06940631e-06 7.10580318e-07 0)
(-7.14472265e-07 7.7321861e-07 0)
(1.81634475e-07 3.2597353e-07 0)
(1.04610626e-06 -3.71767894e-07 0)
(1.28405982e-06 -8.7085412e-07 0)
(6.98506969e-07 -8.33104991e-07 0)
(-3.68921947e-07 -2.62862591e-07 0)
(-1.28346406e-06 4.93532784e-07 0)
(-1.56584515e-06 9.88290821e-07 0)
(-1.19445744e-06 9.87224458e-07 0)
(-3.86221777e-07 4.50924149e-07 0)
(1.5000323e-07 -7.45246091e-08 0)
(1.26232704e-07 1.99919205e-07 0)
(-3.25085962e-07 6.07065422e-07 0)
(-5.78099547e-07 6.76745733e-07 0)
(-3.38328883e-07 1.76713898e-07 0)
(3.05976044e-07 -6.67257452e-07 0)
(8.87486679e-07 -1.26604766e-06 0)
(9.03657874e-07 -1.08292324e-06 0)
(2.30166278e-07 -8.89590777e-08 0)
(-7.25746641e-07 1.12797801e-06 0)
(-1.28662679e-06 1.73111645e-06 0)
(-1.00161573e-06 1.2331613e-06 0)
(-6.82318785e-10 -1.18049611e-07 0)
(1.07138795e-06 -1.46852716e-06 0)
(1.49708865e-06 -1.92805295e-06 0)
(9.74178556e-07 -1.18253548e-06 0)
(-2.14335263e-07 2.94298848e-07 0)
(-1.40066062e-06 1.6038875e-06 0)
(-1.98928835e-06 2.08352661e-06 0)
(-9.02121615e-07 1.28875359e-06 0)
(3.07979976e-07 -3.04406457e-07 0)
(5.69516626e-07 -2.4896387e-07 0)
(1.06842854e-07 2.41493634e-07 0)
(-5.63051543e-07 7.62827564e-07 0)
(-9.3201954e-07 8.49571043e-07 0)
(-6.12161191e-07 2.76764909e-07 0)
(2.85357582e-07 -6.71284794e-07 0)
(1.15241666e-06 -1.33307809e-06 0)
(1.30641739e-06 -1.15080648e-06 0)
(5.30828773e-07 -1.30705374e-07 0)
(-7.075558e-07 1.09577272e-06 0)
(-1.55877349e-06 1.68827286e-06 0)
(-1.39703326e-06 1.1984994e-06 0)
(-2.84058382e-07 -9.01236409e-08 0)
(1.05326248e-06 -1.34491537e-06 0)
(1.71161141e-06 -1.76478825e-06 0)
(1.20417378e-06 -1.12362885e-06 0)
(-1.71546909e-07 1.58220644e-07 0)
(-1.47334243e-06 1.35744302e-06 0)
(-8.7219465e-07 1.52451648e-06 0)
(2.8314166e-07 -1.96536844e-07 0)
(7.59906249e-07 -5.84077753e-07 0)
(6.83542289e-07 -4.23853708e-07 0)
(3.32484625e-08 2.51838769e-07 0)
(-8.4964132e-07 1.00191284e-06 0)
(-1.28083139e-06 1.19287009e-06 0)
(-7.91577684e-07 5.24853627e-07 0)
(4.06812999e-07 -6.60781642e-07 0)
(1.4955288e-06 -1.56088122e-06 0)
(1.63765574e-06 -1.48384616e-06 0)
(6.31758356e-07 -3.87450606e-07 0)
(-8.87310268e-07 1.0412179e-06 0)
(-1.87430661e-06 1.84623329e-06 0)
(-1.62202441e-06 1.47527937e-06 0)
(-2.84474e-07 1.70451044e-07 0)
(1.20868094e-06 -1.20838106e-06 0)
(1.79349853e-06 -1.78332056e-06 0)
(1.08699356e-06 -1.20077453e-06 0)
(-2.30012639e-07 1.44772111e-07 0)
(-4.11601394e-07 1.10801831e-06 0)
(3.06837817e-09 2.21699828e-07 0)
(3.83865836e-07 -4.62314764e-07 0)
(9.29546924e-07 -9.21744272e-07 0)
(8.59717153e-07 -6.46704221e-07 0)
(1.82300494e-09 3.08519923e-07 0)
(-1.10949468e-06 1.3050013e-06 0)
(-1.589332e-06 1.55248957e-06 0)
(-9.36614672e-07 7.17528385e-07 0)
(5.05481145e-07 -7.44724609e-07 0)
(1.74098248e-06 -1.85326399e-06 0)
(1.84552498e-06 -1.79670139e-06 0)
(6.7429749e-07 -5.44413005e-07 0)
(-9.94235786e-07 1.09627394e-06 0)
(-2.00265943e-06 2.0347848e-06 0)
(-1.65436434e-06 1.66363664e-06 0)
(-2.30515288e-07 2.78862124e-07 0)
(1.2150404e-06 -1.14549977e-06 0)
(1.68609709e-06 -1.64360729e-06 0)
(1.08769086e-06 -9.75980138e-07 0)
(2.38257909e-07 1.8162445e-07 0)
(-3.91016506e-07 6.481935e-07 0)
(-4.49883896e-07 1.31142432e-07 0)
(5.11718706e-07 -7.86845278e-07 0)
(1.26685516e-06 -1.27641149e-06 0)
(1.1029466e-06 -8.49931633e-07 0)
(-3.25742606e-08 3.56970748e-07 0)
(-1.37346325e-06 1.56243746e-06 0)
(-1.88713182e-06 1.84827611e-06 0)
(-1.07697495e-06 8.7482828e-07 0)
(5.79369897e-07 -7.92088273e-07 0)
(1.93408777e-06 -2.03616782e-06 0)
(2.0048441e-06 -1.9837267e-06 0)
(7.12493637e-07 -6.45026012e-07 0)
(-1.04203037e-06 1.080103e-06 0)
(-2.03040352e-06 2.04365131e-06 0)
(-1.60014846e-06 1.66857263e-06 0)
(-1.39457003e-07 3.35188564e-07 0)
(1.2518929e-06 -9.58556301e-07 0)
(1.67940313e-06 -1.39972097e-06 0)
(6.91795752e-07 -7.52688542e-07 0)
(-6.16075565e-07 6.97218238e-07 0)
(-1.20492767e-06 7.9951377e-07 0)
(-4.20291661e-07 2.11734123e-08 0)
(8.14789583e-07 -1.03837808e-06 0)
(1.63358378e-06 -1.5949664e-06 0)
(1.30515505e-06 -1.06475024e-06 0)
(-9.15598979e-08 3.67511725e-07 0)
(-1.61778374e-06 1.76619111e-06 0)
(-2.13206965e-06 2.10030847e-06 0)
(-1.172631e-06 1.03385846e-06 0)
(6.47842655e-07 -7.75442775e-07 0)
(2.06152316e-06 -2.11656567e-06 0)
(2.07291435e-06 -2.08723665e-06 0)
(6.95906464e-07 -7.37769248e-07 0)
(-1.05813716e-06 9.8158157e-07 0)
(-1.93909941e-06 1.92685692e-06 0)
(-1.38640081e-06 1.57674482e-06 0)
(5.16751386e-08 3.19497168e-07 0)
(1.19182852e-06 -9.23572306e-07 0)
(6.82497619e-07 -1.14294464e-06 0)
(-4.51857662e-07 2.13766378e-07 0)
(-1.26755464e-06 1.00254827e-06 0)
(-1.25394415e-06 9.93970341e-07 0)
(-3.27272104e-07 5.80123172e-08 0)
(1.07323204e-06 -1.24472434e-06 0)
(1.92874722e-06 -1.90600664e-06 0)
(1.46097073e-06 -1.28033494e-06 0)
(-1.47266348e-07 3.51321833e-07 0)
(-1.80010955e-06 1.91093688e-06 0)
(-2.28888036e-06 2.28867139e-06 0)
(-1.21463339e-06 1.16825127e-06 0)
(6.88806712e-07 -7.17902675e-07 0)
(2.08606007e-06 -2.10377498e-06 0)
(2.02585394e-06 -2.09352808e-06 0)
(6.35785004e-07 -7.82799858e-07 0)
(-1.00217952e-06 8.55721118e-07 0)
(-1.70146114e-06 1.71165828e-06 0)
(-1.11930398e-06 1.30585453e-06 0)
(-9.53480975e-09 9.24368512e-08 0)
(2.48073008e-07 -7.86613713e-07 0)
(6.38582859e-08 -5.48430673e-07 0)
(-4.38784091e-07 4.81568425e-07 0)
(-1.33399547e-06 1.39897716e-06 0)
(-1.41805865e-06 1.30265938e-06 0)
(-3.33096938e-07 9.81445002e-08 0)
(1.26862423e-06 -1.4350786e-06 0)
(2.16694492e-06 -2.17166765e-06 0)
(1.57792273e-06 -1.46568844e-06 0)
(-1.85121739e-07 3.08363569e-07 0)
(-1.9021322e-06 1.97218538e-06 0)
(-2.34795823e-06 2.38087655e-06 0)
(-1.20800458e-06 1.25358167e-06 0)
(6.91581112e-07 -6.26273517e-07 0)
(2.00914813e-06 -1.98644995e-06 0)
(1.88673621e-06 -1.9811512e-06 0)
(5.5819742e-07 -7.64712856e-07 0)
(-9.03128241e-07 6.8987057e-07 0)
(-1.49486831e-06 1.35665586e-06 0)
(-1.1024955e-06 9.46981288e-07 0)
(-3.01849468e-07 2.35935323e-08 0)
(6.17995552e-07 -1.0605116e-06 0)
(8.31029136e-07 -4.85392688e-07 0)
(-4.80905783e-07 8.40734249e-07 0)
(-1.64989444e-06 1.7665191e-06 0)
(-1.66517369e-06 1.53592249e-06 0)
(-3.39441338e-07 1.36565995e-07 0)
(1.43072401e-06 -1.56031924e-06 0)
(2.33335702e-06 -2.35265382e-06 0)
(1.64241839e-06 -1.60639638e-06 0)
(-2.04631384e-07 2.33350121e-07 0)
(-1.9169736e-06 1.93560103e-06 0)
(-2.30553528e-06 2.36384274e-06 0)
(-1.15150819e-06 1.28261651e-06 0)
(6.63993451e-07 -5.05204589e-07 0)
(1.84949457e-06 -1.77572008e-06 0)
(1.66762395e-06 -1.77715777e-06 0)
(4.20375487e-07 -7.18356517e-07 0)
(-8.82492872e-07 5.07092304e-07 0)
(-1.39080329e-06 1.0907364e-06 0)
(-6.05253175e-07 7.17931704e-07 0)
(8.21028819e-07 -8.96928103e-07 0)
(1.69286324e-06 -1.23269316e-06 0)
(8.05909332e-07 -3.84797486e-07 0)
(-7.63670271e-07 1.01211107e-06 0)
(-1.96177506e-06 2.0032011e-06 0)
(-1.82347176e-06 1.73240721e-06 0)
(-3.20382187e-07 2.08286212e-07 0)
(1.53132835e-06 -1.59749412e-06 0)
(2.39982742e-06 -2.4328123e-06 0)
(1.64389016e-06 -1.69167832e-06 0)
(-2.04458492e-07 1.32960084e-07 0)
(-1.84273581e-06 1.80625623e-06 0)
(-2.16379674e-06 2.24070364e-06 0)
(-1.04704163e-06 1.25058927e-06 0)
(6.09424407e-07 -3.76642738e-07 0)
(1.60980041e-06 -1.51387457e-06 0)
(1.35098008e-06 -1.51683377e-06 0)
(2.26179583e-07 -5.86771997e-07 0)
(-7.72177278e-07 5.05212704e-07 0)
(-4.94384851e-07 8.60374424e-07 0)
(4.89925702e-07 -8.12102996e-08 0)
(1.49133367e-06 -1.18084411e-06 0)
(1.65339503e-06 -1.44683565e-06 0)
(7.03623346e-07 -5.18394183e-07 0)
(-9.43036607e-07 1.08016027e-06 0)
(-2.13033967e-06 2.17941214e-06 0)
(-1.89474861e-06 1.89004626e-06 0)
(-3.04806476e-07 3.01050401e-07 0)
(1.54654887e-06 -1.54627815e-06 0)
(2.35773699e-06 -2.40254658e-06 0)
(1.58361383e-06 -1.70791384e-06 0)
(-1.84700817e-07 2.33626649e-08 0)
(-1.68865075e-06 1.60093387e-06 0)
(-1.93988516e-06 2.02212695e-06 0)
(-9.11337424e-07 1.15217465e-06 0)
(5.21910141e-07 -2.64094507e-07 0)
(1.30863145e-06 -1.21753658e-06 0)
(1.04640166e-06 -1.15573551e-06 0)
(2.41116388e-07 -3.22718172e-07 0)
(-9.26093016e-08 4.38499244e-07 0)
(-1.95327431e-07 8.79288315e-07 0)
(2.71169813e-07 -2.86419039e-07 0)
(1.43417012e-06 -1.56329567e-06 0)
(1.76002607e-06 -1.76766024e-06 0)
(7.36660587e-07 -6.37262232e-07 0)
(-1.0134261e-06 1.10519975e-06 0)
(-2.19417433e-06 2.25470658e-06 0)
(-1.89730074e-06 1.96903496e-06 0)
(-2.99631638e-07 3.98188405e-07 0)
(1.47911372e-06 -1.4099901e-06 0)
(2.21569606e-06 -2.25944444e-06 0)
(1.46701147e-06 -1.64696447e-06 0)
(-1.53121884e-07 -7.94277755e-08 0)
(-1.47851409e-06 1.34135404e-06 0)
(-1.66421929e-06 1.72806322e-06 0)
(-7.59152863e-07 1.00034177e-06 0)
(4.37667858e-07 -1.56703076e-07 0)
(1.07817539e-06 -8.80083055e-07 0)
(9.38484501e-07 -7.97409527e-07 0)
(3.00325519e-07 -1.76969035e-07 0)
(-7.9077633e-07 1.32418567e-06 0)
(-1.19682682e-06 8.83778206e-07 0)
(2.45164951e-07 -5.88540051e-07 0)
(1.66329796e-06 -1.81990109e-06 0)
(1.92872077e-06 -1.93057338e-06 0)
(7.56512282e-07 -7.35911429e-07 0)
(-1.03064385e-06 1.03519395e-06 0)
(-2.15373711e-06 2.19701857e-06 0)
(-1.82208146e-06 1.95785876e-06 0)
(-2.94981927e-07 4.90950514e-07 0)
(1.34252804e-06 -1.20277097e-06 0)
(1.98790111e-06 -2.01892517e-06 0)
(1.2988096e-06 -1.51510349e-06 0)
(-1.22730098e-07 -1.64282041e-07 0)
(-1.23877425e-06 1.05651769e-06 0)
(-1.35492428e-06 1.39837119e-06 0)
(-5.64791109e-07 8.27889679e-07 0)
(4.27675631e-07 -7.59016613e-08 0)
(9.26955119e-07 -6.56959417e-07 0)
(4.35780621e-07 -5.45579349e-07 0)
(-8.86422768e-07 9.07745644e-07 0)
(-1.92428263e-06 1.5292924e-06 0)
(-1.12965502e-06 8.38537065e-07 0)
(4.68933159e-07 -6.00715408e-07 0)
(1.81980556e-06 -1.85930274e-06 0)
(1.94628526e-06 -2.0005431e-06 0)
(7.34045497e-07 -8.3962544e-07 0)
(-9.73781122e-07 8.83068151e-07 0)
(-1.99689131e-06 2.02691357e-06 0)
(-1.67029752e-06 1.86149135e-06 0)
(-2.89407023e-07 5.60659094e-07 0)
(1.1499369e-06 -9.59935245e-07 0)
(1.69342958e-06 -1.71566659e-06 0)
(1.09084733e-06 -1.32783518e-06 0)
(-9.60146532e-08 -2.17148807e-07 0)
(-9.78697078e-07 7.85713083e-07 0)
(-1.01100774e-06 1.07009397e-06 0)
(-3.48334196e-07 6.12774642e-07 0)
(3.57371441e-07 -1.18202978e-07 0)
(2.79686467e-07 -4.8032692e-07 0)
(-3.95956268e-07 -1.43099765e-07 0)
(-1.40224583e-06 1.17346592e-06 0)
(-1.77233286e-06 1.71542152e-06 0)
(-1.00159351e-06 1.01745093e-06 0)
(5.31760515e-07 -4.97368076e-07 0)
(1.77970229e-06 -1.78299802e-06 0)
(1.85236328e-06 -1.9546001e-06 0)
(7.08332145e-07 -8.90579796e-07 0)
(-8.45095097e-07 6.94837019e-07 0)
(-1.75633413e-06 1.76305979e-06 0)
(-1.47164982e-06 1.66940759e-06 0)
(-2.85585475e-07 5.75678696e-07 0)
(9.27039551e-07 -7.19234437e-07 0)
(1.36969962e-06 -1.37713526e-06 0)
(8.72160449e-07 -1.09103412e-06 0)
(-6.40550661e-08 -2.22465452e-07 0)
(-7.15433959e-07 5.47877728e-07 0)
(-7.10751374e-07 7.34525342e-07 0)
(-2.74581204e-07 3.57116736e-07 0)
(-9.93075327e-10 -1.35796662e-07 0)
(3.72779127e-07 -1.18373317e-06 0)
(2.85708058e-08 -1.8590493e-08 0)
(-1.28530174e-06 1.36682912e-06 0)
(-1.75349218e-06 1.82503849e-06 0)
(-9.73093618e-07 1.0980636e-06 0)
(5.05499152e-07 -3.2061909e-07 0)
(1.63611781e-06 -1.52263203e-06 0)
(1.67246742e-06 -1.74695626e-06 0)
(6.46218672e-07 -8.87656891e-07 0)
(-7.03648659e-07 4.51268884e-07 0)
(-1.47663831e-06 1.39143863e-06 0)
(-1.23315469e-06 1.38402983e-06 0)
(-2.55324598e-07 5.49752774e-07 0)
(7.1774973e-07 -4.69242288e-07 0)
(1.0542643e-06 -1.00438004e-06 0)
(6.57755925e-07 -8.1872719e-07 0)
(-4.88727376e-08 -2.00529501e-07 0)
(-5.24095275e-07 3.30682859e-07 0)
(-5.45717121e-07 4.44885451e-07 0)
(-1.94637912e-07 1.7133481e-07 0)
(9.35234148e-07 -1.61841822e-06 0)
(1.44707199e-06 -1.33921349e-06 0)
(-5.22528895e-09 -1.05582154e-08 0)
(-1.28486615e-06 1.247061e-06 0)
(-1.60737726e-06 1.7525235e-06 0)
(-8.55177396e-07 1.21528315e-06 0)
(3.97347552e-07 -2.90501172e-08 0)
(1.31888947e-06 -1.18888128e-06 0)
(1.34728335e-06 -1.54818528e-06 0)
(5.37608112e-07 -9.43099126e-07 0)
(-5.14253773e-07 1.60333324e-07 0)
(-1.10927725e-06 1.02120839e-06 0)
(-9.2587631e-07 1.14044044e-06 0)
(-2.00217945e-07 5.65308474e-07 0)
(5.03081535e-07 -2.14939543e-07 0)
(7.28481805e-07 -6.68767943e-07 0)
(4.28739597e-07 -5.93942599e-07 0)
(-7.23298756e-08 -1.88627146e-07 0)
(-3.87448176e-07 1.78844724e-07 0)
(-2.02501044e-07 2.33158656e-07 0)
(9.94899546e-07 -1.30823066e-06 0)
(2.06722472e-06 -2.04711749e-06 0)
(1.29091544e-06 -1.40885131e-06 0)
(6.02635927e-08 -8.8824751e-08 0)
(-1.01505377e-06 1.22108939e-06 0)
(-1.38067291e-06 1.75499291e-06 0)
(-8.95248423e-07 1.21733366e-06 0)
(8.20771395e-08 -6.64130383e-09 0)
(9.10078143e-07 -1.12226422e-06 0)
(1.08874356e-06 -1.46066785e-06 0)
(5.78773335e-07 -8.99814175e-07 0)
(-2.07851014e-07 1.05920105e-07 0)
(-7.28474675e-07 8.81237774e-07 0)
(-6.94233154e-07 9.98159711e-07 0)
(-2.35289904e-07 5.20563542e-07 0)
(2.52057145e-07 -1.21587894e-07 0)
(4.27626992e-07 -4.91263759e-07 0)
(2.46700351e-07 -4.39346683e-07 0)
(-5.22541553e-08 -1.41665872e-07 0)
(-8.1674731e-08 9.04197439e-08 0)
(4.72785076e-07 -4.37596061e-07 0)
(1.33027223e-06 -9.46108117e-07 0)
(1.53831212e-06 -8.7035955e-07 0)
(1.08042204e-06 -3.69166418e-07 0)
(1.48328871e-07 2.93266166e-07 0)
(-7.64286134e-07 7.35871401e-07 0)
(-1.14717936e-06 7.11660701e-07 0)
(-8.18826035e-07 2.68518308e-07 0)
(-4.27759328e-08 -2.93038587e-07 0)
(6.61775723e-07 -6.23784515e-07 0)
(8.73876932e-07 -5.50025713e-07 0)
(5.35524242e-07 -1.6781032e-07 0)
(-5.21334975e-08 2.47192531e-07 0)
(-4.77267498e-07 4.40733269e-07 0)
(-5.11424447e-07 3.42021217e-07 0)
(-2.33185737e-07 7.89607107e-08 0)
(8.4909943e-08 -1.45371381e-07 0)
(2.12697288e-07 -2.04898145e-07 0)
(1.30756908e-07 -1.17671047e-07 0)
(2.53769658e-08 -2.66106998e-09 0)
)
;

boundaryField
{
    top
    {
        type            calculated;
        value           uniform (-5.55111512e-15 0 0);
    }
    left
    {
        type            calculated;
        value           uniform (0 0 0);
    }
    right
    {
        type            calculated;
        value           uniform (0 0 0);
    }
    bottom
    {
        type            calculated;
        value           uniform (0 0 0);
    }
    back0
    {
        type            empty;
    }
    front1
    {
        type            empty;
    }
}


// ************************************************************************* //
