/*--------------------------------*- C++ -*----------------------------------*\
| =========                 |                                                 |
| \\      /  F ield         | OpenFOAM: The Open Source CFD Toolbox           |
|  \\    /   O peration     | Version:  3.0.0                                 |
|   \\  /    A nd           | Web:      www.OpenFOAM.org                      |
|    \\/     M anipulation  |                                                 |
\*---------------------------------------------------------------------------*/
FoamFile
{
    version     2.0;
    format      ascii;
    class       volScalarField;
    location    "10";
    object      p;
}
// * * * * * * * * * * * * * * * * * * * * * * * * * * * * * * * * * * * * * //

dimensions      [0 2 -2 0 0 0 0];

internalField   nonuniform List<scalar> 
400
(
4.28273e-06
-0.0581945
-0.130486
-0.186327
-0.207287
-0.185043
-0.118964
-0.0139632
0.121278
0.275641
0.436629
0.59126
0.726937
0.832379
0.898739
0.921005
0.899822
0.843651
0.771136
0.712948
0.0576504
-0.00213296
-0.0588298
-0.0973573
-0.108554
-0.0865671
-0.0306529
0.0556385
0.165717
0.29093
0.421408
0.54685
0.6573
0.743972
0.800136
0.822153
0.810776
0.771965
0.715073
0.655331
0.134122
0.0513171
-0.0100537
-0.0456464
-0.0547822
-0.0342188
0.0159801
0.0923609
0.189131
0.298865
0.413128
0.523119
0.620314
0.697138
0.747642
0.76827
0.758949
0.723029
0.661407
0.578632
0.204795
0.0902275
0.0138742
-0.0267424
-0.0378699
-0.0185716
0.0298794
0.103386
0.196096
0.300934
0.410033
0.515218
0.608511
0.682647
0.73157
0.751032
0.739724
0.698693
0.621957
0.507331
0.253491
0.105259
0.010928
-0.0368561
-0.0502647
-0.0304149
0.0200754
0.0961247
0.19139
0.298682
0.410233
0.518023
0.61414
0.691146
0.742416
0.762643
0.749123
0.700837
0.605926
0.457433
0.268627
0.0859255
-0.0271954
-0.0819265
-0.0958626
-0.0720893
-0.0147166
0.0699171
0.174654
0.291857
0.413521
0.531448
0.637446
0.723549
0.78221
0.806753
0.792894
0.737614
0.623651
0.440328
0.240175
0.0218275
-0.109808
-0.169472
-0.180325
-0.14761
-0.0771926
0.0230439
0.144861
0.279941
0.419836
0.555966
0.679643
0.782114
0.85461
0.888755
0.878373
0.81821
0.685419
0.46588
0.157363
-0.0984816
-0.247353
-0.308001
-0.310054
-0.261474
-0.17032
-0.0463482
0.100917
0.262369
0.429071
0.592027
0.741994
0.869305
0.963722
1.01478
1.01391
0.953009
0.802652
0.544791
0.00680432
-0.289056
-0.452579
-0.507824
-0.492727
-0.418997
-0.297538
-0.140358
0.0416102
0.238527
0.441115
0.640148
0.825969
0.988028
1.11445
1.19226
1.20974
1.15481
0.989524
0.690543
-0.229326
-0.568134
-0.741512
-0.781397
-0.737176
-0.625929
-0.462292
-0.260899
-0.0340707
0.207906
0.455834
0.70072
0.932909
1.14124
1.3122
1.42983
1.47831
1.43984
1.26461
0.921321
-0.575744
-0.960205
-1.13456
-1.14349
-1.05293
-0.887688
-0.667198
-0.408978
-0.126428
0.17035
0.473031
0.773692
1.06348
1.33127
1.56219
1.73699
1.8346
1.82894
1.65306
1.26259
-1.06819
-1.49912
-1.65786
-1.61108
-1.44926
-1.2081
-0.912811
-0.583679
-0.234354
0.126402
0.492423
0.858182
1.21694
1.55879
1.86837
2.12327
2.29603
2.34902
2.18977
1.75139
-1.7613
-2.23297
-2.34475
-2.20257
-1.93336
-1.58731
-1.19578
-0.780754
-0.354407
0.0777421
0.513593
0.951923
1.39006
1.82131
2.23161
2.59652
2.88183
3.03455
2.92449
2.44447
-2.74491
-3.23207
-3.23657
-2.93507
-2.5066
-2.01829
-1.50609
-0.990697
-0.479657
0.0276671
0.535842
1.05045
1.57554
2.11066
2.64642
3.15944
3.61044
3.92848
3.92977
3.43485
-4.17749
-4.6004
-4.37988
-3.81688
-3.15679
-2.48071
-1.82284
-1.1962
-0.59836
-0.0184885
0.557821
1.14585
1.75962
2.40906
3.09504
3.80197
4.49207
5.07952
5.31259
4.88571
-6.34325
-6.48582
-5.81652
-4.83467
-3.84765
-2.93387
-2.11035
-1.37034
-0.693373
-0.0534292
0.577013
1.22567
1.91983
2.68493
3.54033
4.49078
5.51596
6.53202
7.22414
7.08732
-9.7519
-9.07985
-7.56455
-5.94266
-4.51409
-3.31587
-2.31973
-1.4791
-0.744432
-0.0692905
0.589443
1.27358
2.02615
2.89335
3.92416
5.16413
6.63915
8.30658
9.85895
10.5558
-15.5433
-12.6188
-9.51837
-6.98636
-5.01741
-3.52006
-2.37793
-1.47717
-0.727292
-0.0583452
0.587922
1.26605
2.0343
2.96263
4.14153
5.68495
7.70864
10.2996
13.4578
16.4393
-26.699
-17.2351
-10.9792
-7.32485
-4.90993
-3.26
-2.11103
-1.2649
-0.591711
-0.00636417
0.55494
1.14982
1.84211
2.71701
3.90464
5.60431
8.08265
11.8138
18.1588
27.7254
-45.35
-21.7257
-10.5196
-6.01122
-3.66546
-2.26808
-1.38776
-0.779815
-0.311092
0.09212
0.479124
0.892758
1.38228
2.02121
2.94238
4.39196
6.80869
11.4143
22.7344
46.4739
)
;

boundaryField
{
    top
    {
        type            zeroGradient;
    }
    left
    {
        type            zeroGradient;
    }
    right
    {
        type            zeroGradient;
    }
    bottom
    {
        type            zeroGradient;
    }
    back0
    {
        type            empty;
    }
    front1
    {
        type            empty;
    }
}


// ************************************************************************* //
