/*--------------------------------*- C++ -*----------------------------------*\
| =========                 |                                                 |
| \\      /  F ield         | OpenFOAM: The Open Source CFD Toolbox           |
|  \\    /   O peration     | Version:  3.0.1                                 |
|   \\  /    A nd           | Web:      www.OpenFOAM.org                      |
|    \\/     M anipulation  |                                                 |
\*---------------------------------------------------------------------------*/
FoamFile
{
    version     2.0;
    format      ascii;
    class       volScalarField;
    location    "10";
    object      p;
}
// * * * * * * * * * * * * * * * * * * * * * * * * * * * * * * * * * * * * * //

dimensions      [0 2 -2 0 0 0 0];

internalField   nonuniform List<scalar> 
400
(
4.28272644e-06
-0.0581944818
-0.130485645
-0.186326605
-0.207287371
-0.185042594
-0.118964229
-0.0139631513
0.121277519
0.275641084
0.436628734
0.591260017
0.726936719
0.832379104
0.898738805
0.921005284
0.899821575
0.843651083
0.771135783
0.712948166
0.0576503827
-0.00213296134
-0.0588298224
-0.0973573431
-0.108553712
-0.0865670934
-0.0306528948
0.0556385049
0.165716582
0.290930068
0.421408269
0.546849513
0.657300142
0.743972273
0.800135675
0.822153216
0.810776013
0.77196519
0.715073354
0.655330694
0.134122463
0.051317082
-0.0100537128
-0.0456464048
-0.0547822137
-0.0342187851
0.0159800547
0.092360925
0.189131101
0.298864834
0.413128455
0.523118981
0.620313531
0.697137635
0.747642299
0.768269781
0.758949137
0.723029464
0.661407156
0.578631612
0.204794671
0.0902275224
0.0138742408
-0.02674244
-0.0378699427
-0.018571624
0.0298793563
0.103385785
0.196096139
0.300934062
0.410032842
0.515217698
0.608510729
0.682647099
0.731569916
0.751031698
0.739724105
0.698693347
0.621956986
0.507331098
0.25349096
0.105258722
0.0109280324
-0.036856082
-0.0502647141
-0.0304149147
0.0200754108
0.096124698
0.191390196
0.298682495
0.410233083
0.518023017
0.614139842
0.691145592
0.742415818
0.762643357
0.749122863
0.700837474
0.605926003
0.457432863
0.268626623
0.0859255125
-0.02719542
-0.0819264812
-0.0958626134
-0.0720893206
-0.0147166024
0.0699171395
0.174654178
0.29185683
0.413520829
0.531447726
0.637446101
0.72354878
0.782209634
0.806752865
0.792894133
0.737613719
0.623650675
0.440327683
0.240174952
0.0218275381
-0.109807819
-0.169472149
-0.18032457
-0.147609672
-0.0771925656
0.0230438597
0.144861168
0.279941232
0.419836324
0.555966454
0.679642655
0.782113619
0.854610336
0.888754793
0.878372719
0.818209518
0.685419256
0.465879615
0.157363273
-0.0984816021
-0.247353177
-0.308001469
-0.310054021
-0.261474243
-0.170319998
-0.0463481982
0.100916643
0.262369295
0.429070508
0.592027098
0.741993782
0.869304624
0.963722285
1.01478071
1.01391374
0.953008553
0.802652459
0.544790578
0.00680432357
-0.289055833
-0.452579315
-0.507824237
-0.492726818
-0.41899661
-0.297538263
-0.140357926
0.0416102121
0.238527424
0.441115112
0.640148274
0.825968706
0.988027681
1.11445463
1.19225554
1.20973602
1.15480557
0.989523749
0.690543201
-0.229326491
-0.568133822
-0.741511723
-0.781397493
-0.737176087
-0.625929065
-0.462292042
-0.26089935
-0.0340707459
0.207906056
0.455834175
0.700719563
0.932908833
1.14124181
1.31220445
1.4298297
1.478313
1.43983503
1.26461105
0.921320638
-0.57574429
-0.960205403
-1.1345576
-1.14348944
-1.05292638
-0.887687784
-0.667197959
-0.408978311
-0.126428076
0.170349793
0.473030932
0.773691899
1.06348236
1.33127029
1.56219112
1.73699333
1.83460134
1.82894321
1.65305574
1.26258764
-1.06818904
-1.49911504
-1.65785633
-1.61108071
-1.44925837
-1.20809588
-0.912811408
-0.58367912
-0.234353882
0.126402145
0.492422928
0.858182045
1.21694226
1.55879352
1.86837303
2.12326509
2.29603123
2.34901856
2.18977467
1.75139255
-1.76129858
-2.23297265
-2.34474968
-2.20257053
-1.93336429
-1.58730925
-1.19578404
-0.780754077
-0.354406843
0.0777420718
0.513592867
0.951923414
1.39006225
1.82130746
2.23161337
2.5965208
2.88182875
3.03454858
2.92449036
2.44446586
-2.74491033
-3.23207198
-3.23656687
-2.93507274
-2.50660049
-2.0182919
-1.50608799
-0.990696836
-0.479656788
0.0276671447
0.535841619
1.05044886
1.57554484
2.11066134
2.64642089
3.15944174
3.610437
3.92848438
3.92977211
3.43484749
-4.17749209
-4.60040059
-4.37988081
-3.81687897
-3.15678612
-2.48071133
-1.82283915
-1.19619999
-0.598359797
-0.018488519
0.557821308
1.14584971
1.75961549
2.40906379
3.09503763
3.80196627
4.49206816
5.07952399
5.3125915
4.88570508
-6.34325439
-6.48582147
-5.81652312
-4.83467428
-3.84764524
-2.93386594
-2.11035015
-1.37034084
-0.693373349
-0.0534292146
0.577013329
1.22566953
1.91982787
2.68493354
3.54032749
4.49078201
5.51595517
6.53201937
7.22413601
7.08732412
-9.75189819
-9.07984693
-7.56454815
-5.94266272
-4.51409161
-3.31586891
-2.3197346
-1.47909907
-0.744432411
-0.0692904518
0.589443249
1.27358133
2.02615252
2.89335017
3.92416015
5.16413265
6.63915029
8.30658008
9.85894719
10.5557598
-15.5433465
-12.6187696
-9.51837436
-6.98636269
-5.01741223
-3.52006263
-2.37792928
-1.47717158
-0.727291831
-0.0583451769
0.587921808
1.26604549
2.03429766
2.9626301
4.14153337
5.68495111
7.70863716
10.2996008
13.4578199
16.4393117
-26.6989529
-17.2351191
-10.9792174
-7.32484547
-4.90992661
-3.25999831
-2.1110296
-1.26489575
-0.591710918
-0.00636417147
0.554939518
1.14981961
1.84211381
2.71701487
3.90463625
5.60430587
8.08264892
11.8138157
18.158775
27.725366
-45.3500493
-21.725696
-10.5196357
-6.01121502
-3.66546445
-2.26807566
-1.38776409
-0.779815113
-0.311091967
0.0921200457
0.479124348
0.89275821
1.38227753
2.02120903
2.94237991
4.39195959
6.80869219
11.4142546
22.7343512
46.4738908
)
;

boundaryField
{
    top
    {
        type            zeroGradient;
    }
    left
    {
        type            zeroGradient;
    }
    right
    {
        type            zeroGradient;
    }
    bottom
    {
        type            zeroGradient;
    }
    back0
    {
        type            empty;
    }
    front1
    {
        type            empty;
    }
}


// ************************************************************************* //
