/*--------------------------------*- C++ -*----------------------------------*\
| =========                 |                                                 |
| \\      /  F ield         | OpenFOAM: The Open Source CFD Toolbox           |
|  \\    /   O peration     | Version:  3.0.1                                 |
|   \\  /    A nd           | Web:      www.OpenFOAM.org                      |
|    \\/     M anipulation  |                                                 |
\*---------------------------------------------------------------------------*/
FoamFile
{
    version     2.0;
    format      ascii;
    class       volVectorField;
    location    "10";
    object      U;
}
// * * * * * * * * * * * * * * * * * * * * * * * * * * * * * * * * * * * * * //

dimensions      [0 1 -1 0 0 0 0];

internalField   nonuniform List<vector> 
400
(
(0.00025910271 -0.00025506141 0)
(0.000163275261 0.00010351936 0)
(-0.00114125429 0.000562934655 0)
(-0.00345162185 0.000892683238 0)
(-0.00637455894 0.00105975908 0)
(-0.00950137744 0.00107585988 0)
(-0.012462446 0.000965762615 0)
(-0.0149528176 0.000758486984 0)
(-0.0167424722 0.000482989265 0)
(-0.0176781125 0.000166941469 0)
(-0.0176825146 -0.000162989872 0)
(-0.0167540743 -0.000480342652 0)
(-0.014967396 -0.000757971683 0)
(-0.0124747391 -0.000967398058 0)
(-0.00950714479 -0.00107880434 0)
(-0.00637237413 -0.00106259361 0)
(-0.0034436235 -0.000894003659 0)
(-0.00113223424 -0.000562117752 0)
(0.000168790395 -0.000101406418 0)
(0.000260557149 0.000256262535 0)
(-6.36254461e-05 -0.00019273383 0)
(-0.00156373621 0.00161128328 0)
(-0.00562128769 0.0036099794 0)
(-0.0116623943 0.00506519023 0)
(-0.0188876745 0.0057989359 0)
(-0.0264616734 0.0058160637 0)
(-0.0335808287 0.00520264829 0)
(-0.0395528781 0.00408408376 0)
(-0.0438411265 0.0026008037 0)
(-0.0460817131 0.000897210005 0)
(-0.0460899769 -0.000881778643 0)
(-0.0438629546 -0.00259069519 0)
(-0.0395804497 -0.00408266021 0)
(-0.0336043426 -0.00520997548 0)
(-0.0264731006 -0.00582870501 0)
(-0.0188840518 -0.00581112324 0)
(-0.0116472918 -0.00507122127 0)
(-0.00560339987 -0.00360722849 0)
(-0.00155190826 -0.00160272987 0)
(-6.01318077e-05 0.000198538051 0)
(-0.000508054645 0.00103304414 0)
(-0.00364514413 0.00566233807 0)
(-0.0104977573 0.01021209 0)
(-0.0199304901 0.0134777985 0)
(-0.0307793286 0.015069859 0)
(-0.0419249868 0.0149606137 0)
(-0.0522861695 0.0133219643 0)
(-0.0609227838 0.0104364102 0)
(-0.0671017757 0.00663926723 0)
(-0.0703241027 0.00228747896 0)
(-0.0703359379 -0.00225413056 0)
(-0.067133381 -0.00661751616 0)
(-0.0609637722 -0.0104336438 0)
(-0.0523232376 -0.0133384735 0)
(-0.0419466783 -0.0149890965 0)
(-0.0307804276 -0.015097848 0)
(-0.0199143762 -0.0134927144 0)
(-0.0104753185 -0.0102076239 0)
(-0.0036288936 -0.00564388321 0)
(-0.000502881989 -0.00101879423 0)
(-0.000901525755 0.00337415498 0)
(-0.0056147087 0.0121027249 0)
(-0.0152160127 0.0199185875 0)
(-0.0278960073 0.0253348754 0)
(-0.0420806346 0.0278175332 0)
(-0.0563930733 0.0273454295 0)
(-0.0695396194 0.0242145262 0)
(-0.0804104858 0.0189084566 0)
(-0.0881486827 0.0120071495 0)
(-0.0921742128 0.00413332954 0)
(-0.0921927184 -0.00407342661 0)
(-0.0881990092 -0.0119670875 0)
(-0.0804786047 -0.018901173 0)
(-0.0696069296 -0.0242412142 0)
(-0.0564423177 -0.0273944622 0)
(-0.0421017859 -0.0278680918 0)
(-0.027890155 -0.0253649918 0)
(-0.0151953154 -0.0199157344 0)
(-0.00559611287 -0.0120735467 0)
(-0.000894871563 -0.00334870827 0)
(-0.00124877921 0.00671914638 0)
(-0.00746753074 0.0208067048 0)
(-0.0197752533 0.03255618 0)
(-0.0356414667 0.0403583235 0)
(-0.0530356668 0.0436522843 0)
(-0.0703148044 0.0425094397 0)
(-0.0859995198 0.0374148064 0)
(-0.0988569934 0.0291035759 0)
(-0.107956639 0.018440042 0)
(-0.112678267 0.00634467767 0)
(-0.112709206 -0.00624106367 0)
(-0.108042227 -0.0183675556 0)
(-0.0989773676 -0.0290832506 0)
(-0.0861273432 -0.037450255 0)
(-0.0704227654 -0.0425846796 0)
(-0.053104579 -0.0437362439 0)
(-0.0356666335 -0.0404160469 0)
(-0.0197684263 -0.0325645973 0)
(-0.00745105433 -0.0207705752 0)
(-0.00124126961 -0.00668126432 0)
(-0.0015801737 0.0110106961 0)
(-0.00929263176 0.0317466234 0)
(-0.02432125 0.0481289272 0)
(-0.0433743846 0.0585360791 0)
(-0.0639230204 0.0625112817 0)
(-0.0840449359 0.0603351439 0)
(-0.102093606 0.0527734167 0)
(-0.116751936 0.0408774845 0)
(-0.127060242 0.0258362169 0)
(-0.13239529 0.00888910385 0)
(-0.132446574 -0.00871105958 0)
(-0.127203916 -0.0257054031 0)
(-0.1169596 -0.0408271915 0)
(-0.10232485 -0.0528124325 0)
(-0.0842568077 -0.0604436702 0)
(-0.0640811229 -0.0626456904 0)
(-0.0434628868 -0.0586432847 0)
(-0.0243482581 -0.0481684428 0)
(-0.00928635955 -0.031715169 0)
(-0.00157322666 -0.0109621135 0)
(-0.00192625739 0.0162550698 0)
(-0.0111929 0.0449648636 0)
(-0.0290278997 0.0666850365 0)
(-0.0513080573 0.0798756076 0)
(-0.0749610781 0.0843338801 0)
(-0.0977822814 0.0806969746 0)
(-0.117988291 0.070128625 0)
(-0.134227474 0.0540740486 0)
(-0.145564315 0.0340861105 0)
(-0.151415612 0.0117325403 0)
(-0.151496506 -0.011432173 0)
(-0.145793043 -0.0338557633 0)
(-0.134564561 -0.0539652677 0)
(-0.118375863 -0.0701597849 0)
(-0.0981555742 -0.0808461365 0)
(-0.0752630725 -0.0845426745 0)
(-0.0515043835 -0.0800662902 0)
(-0.0291175745 -0.0667897445 0)
(-0.0112092901 -0.0449617397 0)
(-0.00192231578 -0.0162027094 0)
(-0.00231586617 0.0225188869 0)
(-0.0132686117 0.0605807213 0)
(-0.0340569768 0.0883110926 0)
(-0.059604869 0.104368566 0)
(-0.0862452975 0.108997337 0)
(-0.111508516 0.103380064 0)
(-0.133533106 0.0892237815 0)
(-0.15100956 0.0684555433 0)
(-0.163100855 0.0430258895 0)
(-0.169320773 0.0148224165 0)
(-0.169440504 -0.0143329525 0)
(-0.163441902 -0.0426373991 0)
(-0.151519873 -0.0682455404 0)
(-0.134134146 -0.0892266219 0)
(-0.112108175 -0.103575264 0)
(-0.0867560066 -0.109310713 0)
(-0.0599644112 -0.1046905 0)
(-0.0342470585 -0.0885331232 0)
(-0.0133249289 -0.0606460646 0)
(-0.00231859234 -0.0224774374 0)
(-0.00277919558 0.0299257525 0)
(-0.0156192297 0.0787852805 0)
(-0.0395457678 0.113109759 0)
(-0.0683430236 0.131941969 0)
(-0.0976948733 0.13624535 0)
(-0.124920468 0.127998144 0)
(-0.148185634 0.109628251 0)
(-0.166341059 0.0836380231 0)
(-0.178753042 0.0523950511 0)
(-0.18510833 0.0180718758 0)
(-0.185273805 -0.0173092952 0)
(-0.179227539 -0.0517729575 0)
(-0.167060685 -0.0832686531 0)
(-0.149050927 -0.109570385 0)
(-0.125809064 -0.128239199 0)
(-0.0984818551 -0.136696932 0)
(-0.0689278823 -0.132456228 0)
(-0.0398814832 -0.113521706 0)
(-0.0157375889 -0.0789798364 0)
(-0.00279365469 -0.0299204499 0)
(-0.00335558908 0.0386598317 0)
(-0.0183589921 0.0998286311 0)
(-0.0456106457 0.141149004 0)
(-0.0774898396 0.162368231 0)
(-0.108990996 0.165574072 0)
(-0.137340472 0.153875608 0)
(-0.160905734 0.130632498 0)
(-0.178870097 0.0990104293 0)
(-0.190943373 0.0617852177 0)
(-0.197080757 0.0213406323 0)
(-0.197293192 -0.0202106555 0)
(-0.19155667 -0.0608422122 0)
(-0.179812904 -0.0984096829 0)
(-0.162062649 -0.130467247 0)
(-0.13856143 -0.154151348 0)
(-0.11011087 -0.166194667 0)
(-0.0783600715 -0.16314486 0)
(-0.0461409192 -0.14184344 0)
(-0.0185657556 -0.10023664 0)
(-0.00338840858 -0.0387292537 0)
(-0.00410769303 0.0489852973 0)
(-0.0216450025 0.124008523 0)
(-0.0523542031 0.172385472 0)
(-0.0868591289 0.195134297 0)
(-0.11948131 0.196079174 0)
(-0.147583889 0.179902917 0)
(-0.170007078 0.151130527 0)
(-0.18650147 0.113650953 0)
(-0.197291776 0.0705900832 0)
(-0.202708788 0.0244160595 0)
(-0.202959321 -0.022828726 0)
(-0.198020703 -0.0692386149 0)
(-0.18763934 -0.112739117 0)
(-0.171435194 -0.150796259 0)
(-0.149136082 -0.180184112 0)
(-0.1209575 -0.196885877 0)
(-0.0880571971 -0.196241899 0)
(-0.0531240554 -0.173469175 0)
(-0.0219690713 -0.12473785 0)
(-0.00416716437 -0.049183831 0)
(-0.00514672125 0.0612936572 0)
(-0.0257192198 0.151656872 0)
(-0.0598573325 0.206540866 0)
(-0.0960163556 0.229247362 0)
(-0.128010539 0.226252066 0)
(-0.153752937 0.204366564 0)
(-0.172950779 0.169499918 0)
(-0.186211832 0.126253702 0)
(-0.194456675 0.0779668358 0)
(-0.198488972 0.0269985749 0)
(-0.198753974 -0.0248921042 0)
(-0.195235526 -0.0761392865 0)
(-0.187451784 -0.124956368 0)
(-0.174551719 -0.168923185 0)
(-0.155556649 -0.204598297 0)
(-0.12980073 -0.227232061 0)
(-0.0975421232 -0.230734027 0)
(-0.0608942999 -0.208120369 0)
(-0.0261884395 -0.152833974 0)
(-0.00524278115 -0.0616931009 0)
(-0.00667695389 0.0761991899 0)
(-0.0309618098 0.183102318 0)
(-0.0681131742 0.242881291 0)
(-0.10406112 0.262937313 0)
(-0.132609117 0.253713738 0)
(-0.152911313 0.224767312 0)
(-0.166064267 0.183506308 0)
(-0.173836891 0.135093404 0)
(-0.177984689 0.0828291916 0)
(-0.179830222 0.0286992452 0)
(-0.180068011 -0.0260728421 0)
(-0.178694667 -0.0805072215 0)
(-0.175001629 -0.1333634 0)
(-0.167632218 -0.182612023 0)
(-0.154769959 -0.224863996 0)
(-0.134563331 -0.254804105 0)
(-0.105835094 -0.264801054 0)
(-0.0694045869 -0.245035404 0)
(-0.031595999 -0.184858166 0)
(-0.00682084406 -0.0768885803 0)
(-0.0090657619 0.0947026385 0)
(-0.0379246415 0.218538327 0)
(-0.0767913836 0.27980417 0)
(-0.109143734 0.293208676 0)
(-0.129924729 0.274900172 0)
(-0.140578599 0.237679786 0)
(-0.14417598 0.190296539 0)
(-0.143858219 0.138083672 0)
(-0.142218388 0.0839087336 0)
(-0.141028902 0.0290636833 0)
(-0.14118099 -0.0260145468 0)
(-0.142689435 -0.081158969 0)
(-0.144683429 -0.135932439 0)
(-0.14538399 -0.189029521 0)
(-0.142149469 -0.237529637 0)
(-0.131741767 -0.275969879 0)
(-0.110959041 -0.295359026 0)
(-0.078248186 -0.28253918 0)
(-0.0387218152 -0.220978845 0)
(-0.00926852092 -0.0957839722 0)
(-0.0129064965 0.11840854 0)
(-0.0471896983 0.25761517 0)
(-0.084541281 0.314085573 0)
(-0.107433025 0.315236806 0)
(-0.114222046 0.284803044 0)
(-0.109987081 0.238796067 0)
(-0.10019161 0.186611106 0)
(-0.0892602699 0.133024639 0)
(-0.0803513387 0.0799415633 0)
(-0.0754276642 0.0276432401 0)
(-0.0754289732 -0.0243954531 0)
(-0.0803895508 -0.0769480839 0)
(-0.0894298924 -0.130558967 0)
(-0.100620783 -0.184972278 0)
(-0.110789496 -0.238285713 0)
(-0.11542694 -0.285651536 0)
(-0.108905906 -0.317458338 0)
(-0.0859441536 -0.317272945 0)
(-0.0480970328 -0.260766776 0)
(-0.0131729811 -0.119982478 0)
(-0.0188565037 0.149839413 0)
(-0.0584939905 0.298411265 0)
(-0.0871238284 0.339552567 0)
(-0.0910298029 0.321660365 0)
(-0.0757519611 0.276980956 0)
(-0.0511223692 0.223384751 0)
(-0.0247385416 0.169390593 0)
(-0.00161211446 0.118146574 0)
(0.0152214314 0.0700342586 0)
(0.0241045284 0.0241323111 0)
(0.024302302 -0.0210356802 0)
(0.0157673098 -0.0671084024 0)
(-0.000856603029 -0.11559693 0)
(-0.0239880019 -0.167483971 0)
(-0.050631556 -0.22245347 0)
(-0.0757440648 -0.277375535 0)
(-0.0915838375 -0.323604379 0)
(-0.0880579883 -0.342864161 0)
(-0.0593476792 -0.302137066 0)
(-0.0191649203 -0.151974067 0)
(-0.0264625455 0.193171195 0)
(-0.0677000407 0.335014323 0)
(-0.0729896221 0.344651852 0)
(-0.0441147967 0.301756051 0)
(0.00159043215 0.244051747 0)
(0.0502178734 0.187354316 0)
(0.0938180469 0.136864137 0)
(0.128367538 0.0929595316 0)
(0.152066822 0.0541905825 0)
(0.164225581 0.0185620129 0)
(0.164617879 -0.0160354701 0)
(0.153198339 -0.0517325264 0)
(0.130098916 -0.0906764465 0)
(0.095909591 -0.134939064 0)
(0.0523327144 -0.186079793 0)
(0.0033341975 -0.243831942 0)
(-0.0430904947 -0.303013979 0)
(-0.0728279135 -0.347547204 0)
(-0.0681295094 -0.338913013 0)
(-0.0267083259 -0.195840586 0)
(-0.0289527581 0.251331315 0)
(-0.0581036135 0.350741898 0)
(-0.0140170762 0.309539069 0)
(0.0632657943 0.242400599 0)
(0.142946959 0.180310321 0)
(0.212723819 0.129919439 0)
(0.268472776 0.0905925628 0)
(0.309449326 0.0595774641 0)
(0.336245827 0.034034596 0)
(0.349654593 0.0115487775 0)
(0.350147696 -0.0099515598 0)
(0.337700438 -0.0324236422 0)
(0.311782818 -0.057964164 0)
(0.271519283 -0.0890461145 0)
(0.216198154 -0.128613177 0)
(0.146424036 -0.179576156 0)
(0.0662122528 -0.242735896 0)
(-0.0121382481 -0.311417368 0)
(-0.0574832347 -0.354042304 0)
(-0.0288312476 -0.254177677 0)
(0.0132195553 0.289507494 0)
(0.0296816834 0.30285456 0)
(0.15417969 0.214068812 0)
(0.282833701 0.142345223 0)
(0.382969602 0.0939486669 0)
(0.45713086 0.0619624487 0)
(0.510502494 0.0405509431 0)
(0.547090516 0.025547409 0)
(0.569959925 0.0142061144 0)
(0.581116175 0.00473812413 0)
(0.581523402 -0.00414300995 0)
(0.571184991 -0.0135724675 0)
(0.549136896 -0.0248412681 0)
(0.513349856 -0.0397538552 0)
(0.460686706 -0.0611006457 0)
(0.387005995 -0.0931595577 0)
(0.286924355 -0.141969627 0)
(0.15762611 -0.214616955 0)
(0.0318291841 -0.304532301 0)
(0.0142600289 -0.291324499 0)
(0.304245119 0.147454745 0)
(0.40556337 0.127829555 0)
(0.569531337 0.0747835015 0)
(0.686121673 0.0418385777 0)
(0.753522531 0.0238429738 0)
(0.794598212 0.0139302375 0)
(0.820887688 0.00829802103 0)
(0.837586481 0.00488893046 0)
(0.847522292 0.0026005275 0)
(0.852223002 0.00083524639 0)
(0.852350808 -0.000772307754 0)
(0.847917608 -0.00252075451 0)
(0.838285537 -0.00477209212 0)
(0.821949451 -0.00811771589 0)
(0.7960913 -0.0136558015 0)
(0.755502852 -0.0234583768 0)
(0.688596478 -0.0413908874 0)
(0.572194811 -0.0744403302 0)
(0.4075242 -0.12786856 0)
(0.305169545 -0.147795834 0)
)
;

boundaryField
{
    top
    {
        type            fixedValue;
        value           uniform (1 0 0);
    }
    left
    {
        type            fixedValue;
        value           uniform (0 0 0);
    }
    right
    {
        type            fixedValue;
        value           uniform (0 0 0);
    }
    bottom
    {
        type            fixedValue;
        value           uniform (0 0 0);
    }
    back0
    {
        type            empty;
    }
    front1
    {
        type            empty;
    }
}


// ************************************************************************* //
