/*--------------------------------*- C++ -*----------------------------------*\
| =========                 |                                                 |
| \\      /  F ield         | OpenFOAM: The Open Source CFD Toolbox           |
|  \\    /   O peration     | Version:  3.0.1                                 |
|   \\  /    A nd           | Web:      www.OpenFOAM.org                      |
|    \\/     M anipulation  |                                                 |
\*---------------------------------------------------------------------------*/
FoamFile
{
    version     2.0;
    format      ascii;
    class       volVectorField;
    location    "10";
    object      vorticity;
}
// * * * * * * * * * * * * * * * * * * * * * * * * * * * * * * * * * * * * * //

dimensions      [0 0 -1 0 0 0 0];

internalField   nonuniform List<vector> 
400
(
(0 -0 -0.00347019314)
(0 -0 0.0221845701)
(0 -0 0.0755170586)
(0 -0 0.156108406)
(0 -0 0.254454101)
(0 -0 0.358690544)
(0 -0 0.457259018)
(0 -0 0.540229223)
(0 -0 0.599920532)
(0 -0 0.631138465)
(0 -0 0.631252074)
(0 -0 0.600220471)
(0 -0 0.540607903)
(0 -0 0.45758249)
(0 -0 0.358850498)
(0 -0 0.254412266)
(0 -0 0.155913912)
(0 -0 0.0752823135)
(0 -0 0.0220149815)
(0 -0 -0.00355281458)
(0 -0 0.0218570681)
(0 -0 0.0761113262)
(0 -0 0.1281041)
(0 -0 0.186678248)
(0 -0 0.251556431)
(0 -0 0.318273218)
(0 -0 0.380917436)
(0 -0 0.433681216)
(0 -0 0.471724297)
(0 -0 0.491634079)
(0 -0 0.491655181)
(0 -0 0.471784251)
(0 -0 0.433770959)
(0 -0 0.381024537)
(0 -0 0.318383857)
(0 -0 0.251655372)
(0 -0 0.186746475)
(0 -0 0.128115757)
(0 -0 0.0760345054)
(0 -0 0.0216763096)
(0 -0 0.0753328252)
(0 -0 0.132300184)
(0 -0 0.174101854)
(0 -0 0.21091382)
(0 -0 0.246757753)
(0 -0 0.281835052)
(0 -0 0.314345872)
(0 -0 0.341749106)
(0 -0 0.36158625)
(0 -0 0.371991019)
(0 -0 0.371977464)
(0 -0 0.361565414)
(0 -0 0.341771977)
(0 -0 0.314471343)
(0 -0 0.282098426)
(0 -0 0.247141162)
(0 -0 0.211330873)
(0 -0 0.174407467)
(0 -0 0.132330343)
(0 -0 0.074974172)
(0 -0 0.162176044)
(0 -0 0.203668191)
(0 -0 0.225096465)
(0 -0 0.236099223)
(0 -0 0.242668923)
(0 -0 0.247868106)
(0 -0 0.252763774)
(0 -0 0.257268329)
(0 -0 0.260797362)
(0 -0 0.262735882)
(0 -0 0.262728511)
(0 -0 0.260810996)
(0 -0 0.257394687)
(0 -0 0.253108164)
(0 -0 0.248492095)
(0 -0 0.243536218)
(0 -0 0.237046147)
(0 -0 0.225845529)
(0 -0 0.203891869)
(0 -0 0.161606426)
(0 -0 0.282044991)
(0 -0 0.295149567)
(0 -0 0.28656856)
(0 -0 0.265744816)
(0 -0 0.23993502)
(0 -0 0.214143847)
(0 -0 0.191481228)
(0 -0 0.173666858)
(0 -0 0.161526611)
(0 -0 0.155399715)
(0 -0 0.155416223)
(0 -0 0.161627199)
(0 -0 0.173982959)
(0 -0 0.192164914)
(0 -0 0.215285011)
(0 -0 0.241479697)
(0 -0 0.267443784)
(0 -0 0.287984144)
(0 -0 0.295735797)
(0 -0 0.281301946)
(0 -0 0.434347977)
(0 -0 0.408436004)
(0 -0 0.360421021)
(0 -0 0.300489451)
(0 -0 0.237244761)
(0 -0 0.17729612)
(0 -0 0.125311118)
(0 -0 0.084332808)
(0 -0 0.0561929535)
(0 -0 0.0419006852)
(0 -0 0.0419279305)
(0 -0 0.0563468408)
(0 -0 0.08480164)
(0 -0 0.126320411)
(0 -0 0.178995509)
(0 -0 0.23958879)
(0 -0 0.303149976)
(0 -0 0.362772639)
(0 -0 0.409645651)
(0 -0 0.433583287)
(0 -0 0.619556259)
(0 -0 0.544059466)
(0 -0 0.446464708)
(0 -0 0.33879328)
(0 -0 0.231436441)
(0 -0 0.13258325)
(0 -0 0.04816574)
(0 -0 -0.017848905)
(0 -0 -0.063008953)
(0 -0 -0.085928005)
(0 -0 -0.085943736)
(0 -0 -0.062951087)
(0 -0 -0.017437486)
(0 -0 0.049284272)
(0 -0 0.134684777)
(0 -0 0.2345473)
(0 -0 0.342544544)
(0 -0 0.450033509)
(0 -0 0.546256044)
(0 -0 0.619098148)
(0 -0 0.839525464)
(0 -0 0.702185354)
(0 -0 0.543057128)
(0 -0 0.377212107)
(0 -0 0.217452932)
(0 -0 0.073646311)
(0 -0 -0.047271777)
(0 -0 -0.14084307)
(0 -0 -0.204443998)
(0 -0 -0.23666124)
(0 -0 -0.236825166)
(0 -0 -0.204780919)
(0 -0 -0.140930988)
(0 -0 -0.046546596)
(0 -0 0.075693987)
(0 -0 0.221035466)
(0 -0 0.382010886)
(0 -0 0.548083441)
(0 -0 0.705839846)
(0 -0 0.839948409)
(0 -0 1.09750756)
(0 -0 0.882743869)
(0 -0 0.647103574)
(0 -0 0.410205616)
(0 -0 0.188018735)
(0 -0 -0.00785143)
(0 -0 -0.169874929)
(0 -0 -0.293726629)
(0 -0 -0.377236293)
(0 -0 -0.419443623)
(0 -0 -0.419921453)
(0 -0 -0.378445899)
(0 -0 -0.295043965)
(0 -0 -0.170420429)
(0 -0 -0.00673292)
(0 -0 0.191378344)
(0 -0 0.415708863)
(0 -0 0.653702523)
(0 -0 0.888420828)
(0 -0 1.09970103)
(0 -0 1.3981696)
(0 -0 1.08514945)
(0 -0 0.753480352)
(0 -0 0.429411733)
(0 -0 0.132938137)
(0 -0 -0.12278153)
(0 -0 -0.330437347)
(0 -0 -0.486868693)
(0 -0 -0.59131063)
(0 -0 -0.643954152)
(0 -0 -0.644973285)
(0 -0 -0.594058634)
(0 -0 -0.490463798)
(0 -0 -0.333573981)
(0 -0 -0.12400402)
(0 -0 0.134821329)
(0 -0 0.434805418)
(0 -0 0.761507922)
(0 -0 1.09345669)
(0 -0 1.40339403)
(0 -0 1.74784952)
(0 -0 1.30760402)
(0 -0 0.853724608)
(0 -0 0.42220218)
(0 -0 0.03788163)
(0 -0 -0.28536182)
(0 -0 -0.54206919)
(0 -0 -0.731987088)
(0 -0 -0.857215915)
(0 -0 -0.920105942)
(0 -0 -0.921938924)
(0 -0 -0.86231535)
(0 -0 -0.739187641)
(0 -0 -0.54955925)
(0 -0 -0.29094399)
(0 -0 0.03632073)
(0 -0 0.425987537)
(0 -0 0.862574297)
(0 -0 1.31908028)
(0 -0 1.75776054)
(0 -0 2.1551979)
(0 -0 1.54564016)
(0 -0 0.933494611)
(0 -0 0.369131911)
(0 -0 -0.11752991)
(0 -0 -0.51424724)
(0 -0 -0.82055673)
(0 -0 -1.04197661)
(0 -0 -1.18562214)
(0 -0 -1.25737506)
(0 -0 -1.26029171)
(0 -0 -1.193903)
(0 -0 -1.0542161)
(0 -0 -0.83444905)
(0 -0 -0.52674999)
(0 -0 -0.12529899)
(0 -0 0.368895889)
(0 -0 0.941805845)
(0 -0 1.56054196)
(0 -0 2.17180755)
(0 -0 2.63220549)
(0 -0 1.78887523)
(0 -0 0.967690461)
(0 -0 0.239598254)
(0 -0 -0.36255811)
(0 -0 -0.83381768)
(0 -0 -1.18448707)
(0 -0 -1.43030729)
(0 -0 -1.58632446)
(0 -0 -1.66362104)
(0 -0 -1.66779451)
(0 -0 -1.59836649)
(0 -0 -1.44873157)
(0 -0 -1.20668325)
(0 -0 -0.85599262)
(0 -0 -0.37996021)
(0 -0 0.231856188)
(0 -0 0.972967741)
(0 -0 1.80680199)
(0 -0 2.65772486)
(0 -0 3.19470508)
(0 -0 2.0132942)
(0 -0 0.910984558)
(0 -0 -0.01532093)
(0 -0 -0.73915961)
(0 -0 -1.27527865)
(0 -0 -1.65468771)
(0 -0 -1.90964427)
(0 -0 -2.06653339)
(0 -0 -2.14325838)
(0 -0 -2.1486169)
(0 -0 -2.08223008)
(0 -0 -1.93442289)
(0 -0 -1.68608633)
(0 -0 -1.30920821)
(0 -0 -0.7696578)
(0 -0 -0.03498489)
(0 -0 0.909197477)
(0 -0 2.03256242)
(0 -0 3.23114954)
(0 -0 3.85814452)
(0 -0 2.16246382)
(0 -0 0.679540808)
(0 -0 -0.473964601)
(0 -0 -1.30613507)
(0 -0 -1.87648168)
(0 -0 -2.25208866)
(0 -0 -2.48915647)
(0 -0 -2.62821218)
(0 -0 -2.69470447)
(0 -0 -2.70074616)
(0 -0 -2.64620259)
(0 -0 -2.5185102)
(0 -0 -2.29122734)
(0 -0 -1.92197171)
(0 -0 -1.35170327)
(0 -0 -0.509966125)
(0 -0 0.665013643)
(0 -0 2.17916331)
(0 -0 3.90645653)
(0 -0 4.61806727)
(0 -0 2.10223496)
(0 -0 0.116974411)
(0 -0 -1.25889839)
(0 -0 -2.14088092)
(0 -0 -2.67795317)
(0 -0 -2.99247834)
(0 -0 -3.16984142)
(0 -0 -3.26432424)
(0 -0 -3.30723184)
(0 -0 -3.31287566)
(0 -0 -3.2814914)
(0 -0 -3.19904377)
(0 -0 -3.03386914)
(0 -0 -2.73013774)
(0 -0 -2.19912047)
(0 -0 -1.31304037)
(0 -0 0.083510729)
(0 -0 2.10922571)
(0 -0 4.67646478)
(0 -0 5.38281772)
(0 -0 1.5109028)
(0 -0 -1.06365024)
(0 -0 -2.54895702)
(0 -0 -3.33100655)
(0 -0 -3.71033798)
(0 -0 -3.87606102)
(0 -0 -3.93734995)
(0 -0 -3.95421914)
(0 -0 -3.95776117)
(0 -0 -3.96139933)
(0 -0 -3.96574105)
(0 -0 -3.95845959)
(0 -0 -3.90910631)
(0 -0 -3.75722588)
(0 -0 -3.39102287)
(0 -0 -2.61511352)
(0 -0 -1.11818774)
(0 -0 1.49842174)
(0 -0 5.44419926)
(0 -0 5.62391112)
(0 -0 -0.391739701)
(0 -0 -3.35510611)
(0 -0 -4.56177246)
(0 -0 -4.9386033)
(0 -0 -4.96630745)
(0 -0 -4.87026422)
(0 -0 -4.75280945)
(0 -0 -4.6592179)
(0 -0 -4.6087675)
(0 -0 -4.60877943)
(0 -0 -4.65999256)
(0 -0 -4.75660452)
(0 -0 -4.88089278)
(0 -0 -4.98884033)
(0 -0 -4.97794517)
(0 -0 -4.61856062)
(0 -0 -3.41760432)
(0 -0 -0.427190025)
(0 -0 5.67251626)
(0 -0 2.59164177)
(0 -0 -5.39105666)
(0 -0 -7.4405775)
(0 -0 -7.42976024)
(0 -0 -6.90958346)
(0 -0 -6.35272117)
(0 -0 -5.88829952)
(0 -0 -5.54481984)
(0 -0 -5.3208575)
(0 -0 -5.20917533)
(0 -0 -5.20513704)
(0 -0 -5.30915428)
(0 -0 -5.52684107)
(0 -0 -5.86689546)
(0 -0 -6.33298848)
(0 -0 -6.89947797)
(0 -0 -7.43841623)
(0 -0 -7.46895733)
(0 -0 -5.41714979)
(0 -0 2.61856007)
(0 -0 -14.0725103)
(0 -0 -16.3742619)
(0 -0 -13.6227995)
(0 -0 -10.8198515)
(0 -0 -8.91416207)
(0 -0 -7.63815881)
(0 -0 -6.77651125)
(0 -0 -6.21020497)
(0 -0 -5.86571467)
(0 -0 -5.70033658)
(0 -0 -5.69481791)
(0 -0 -5.84897185)
(0 -0 -6.18174528)
(0 -0 -6.73584402)
(0 -0 -7.58562655)
(0 -0 -8.85226239)
(0 -0 -10.7546112)
(0 -0 -13.5665675)
(0 -0 -16.3400212)
(0 -0 -14.0490603)
)
;

boundaryField
{
    top
    {
        type            calculated;
        value           nonuniform List<vector> 
20
(
(0 -0 -25.0773522)
(0 -0 -24.5041776)
(0 -0 -18.0786563)
(0 -0 -13.0645384)
(0 -0 -10.1381822)
(0 -0 -8.37152105)
(0 -0 -7.25490555)
(0 -0 -6.5535157)
(0 -0 -6.13964516)
(0 -0 -5.94480827)
(0 -0 -5.93952769)
(0 -0 -6.12329352)
(0 -0 -6.52454813)
(0 -0 -7.21085905)
(0 -0 -8.30975461)
(0 -0 -10.0572368)
(0 -0 -12.9659604)
(0 -0 -17.9769843)
(0 -0 -24.432587)
(0 -0 -25.0365743)
)
;
    }
    left
    {
        type            calculated;
        value           nonuniform List<vector> 
20
(
(0 -0 -0.012157229)
(0 -0 -3.777965e-05)
(0 -0 0.0497007687)
(0 -0 0.142373445)
(0 -0 0.275552335)
(0 -0 0.447202626)
(0 -0 0.657559717)
(0 -0 0.909284858)
(0 -0 1.20742733)
(0 -0 1.55967824)
(0 -0 1.97732321)
(0 -0 2.4774389)
(0 -0 3.087158)
(0 -0 3.85040097)
(0 -0 4.83424902)
(0 -0 6.12913701)
(0 -0 7.82781034)
(0 -0 9.65643159)
(0 -0 8.24832099)
(0 -0 -10.9271635)
)
;
    }
    right
    {
        type            calculated;
        value           nonuniform List<vector> 
20
(
(0 -0 -0.0122547548)
(0 -0 -0.00030713066)
(0 -0 0.0490991668)
(0 -0 0.141332207)
(0 -0 0.274034124)
(0 -0 0.445295002)
(0 -0 0.655562033)
(0 -0 0.907810885)
(0 -0 1.20751616)
(0 -0 1.56290524)
(0 -0 1.98589697)
(0 -0 2.49426083)
(0 -0 3.11580061)
(0 -0 3.89488026)
(0 -0 4.89826311)
(0 -0 6.21431613)
(0 -0 7.93028671)
(0 -0 9.75742353)
(0 -0 8.31297203)
(0 -0 -10.8938709)
)
;
    }
    bottom
    {
        type            calculated;
        value           nonuniform List<vector> 
20
(
(0 -0 -0.0118795289)
(0 -0 0.00164895021)
(0 -0 0.0535418104)
(0 -0 0.143033118)
(0 -0 0.256814124)
(0 -0 0.379115133)
(0 -0 0.495324111)
(0 -0 0.59328497)
(0 -0 0.663783433)
(0 -0 0.700664709)
(0 -0 0.700827743)
(0 -0 0.664213154)
(0 -0 0.593825286)
(0 -0 0.495781237)
(0 -0 0.379333836)
(0 -0 0.256742972)
(0 -0 0.142749699)
(0 -0 0.053215342)
(0 -0 0.00143218707)
(0 -0 -0.0119708471)
)
;
    }
    back0
    {
        type            empty;
    }
    front1
    {
        type            empty;
    }
}


// ************************************************************************* //
