/*--------------------------------*- C++ -*----------------------------------*\
| =========                 |                                                 |
| \\      /  F ield         | OpenFOAM: The Open Source CFD Toolbox           |
|  \\    /   O peration     | Version:  3.0.1                                 |
|   \\  /    A nd           | Web:      www.OpenFOAM.org                      |
|    \\/     M anipulation  |                                                 |
\*---------------------------------------------------------------------------*/
FoamFile
{
    version     2.0;
    format      ascii;
    class       volVectorField;
    location    "10";
    object      W;
}
// * * * * * * * * * * * * * * * * * * * * * * * * * * * * * * * * * * * * * //

dimensions      [0 1 -1 0 0 0 0];

internalField   nonuniform List<vector> 
400
(
(7.04638432e-08 -4.63472797e-08 0)
(2.16355688e-07 -1.93078289e-07 0)
(1.74164266e-07 -1.97523863e-07 0)
(-1.59689697e-07 2.42643864e-08 0)
(-5.49942231e-07 3.63384743e-07 0)
(-6.24531276e-07 5.62500806e-07 0)
(-1.9607896e-07 4.07314699e-07 0)
(5.25682746e-07 -8.08025637e-08 0)
(1.03991042e-06 -6.16157812e-07 0)
(9.14810886e-07 -8.26942037e-07 0)
(1.34735417e-07 -5.20929876e-07 0)
(-8.41128488e-07 1.57149709e-07 0)
(-1.3729756e-06 7.99877678e-07 0)
(-1.08172933e-06 9.97983418e-07 0)
(-1.12768707e-07 6.06873463e-07 0)
(9.71130412e-07 -1.6245029e-07 0)
(1.58363735e-06 -8.81928012e-07 0)
(1.50320565e-06 -1.17814582e-06 0)
(9.68706927e-07 -9.64353798e-07 0)
(2.67528842e-07 -3.41988825e-07 0)
(-4.24989794e-08 2.69181364e-08 0)
(1.25562082e-07 -3.58885251e-07 0)
(4.71007987e-07 -5.71839384e-07 0)
(4.32887039e-07 -2.84804117e-07 0)
(-7.76655075e-08 4.44465087e-07 0)
(-7.14874551e-07 1.12929935e-06 0)
(-9.43831355e-07 1.18292362e-06 0)
(-4.80179468e-07 3.90791972e-07 0)
(4.43275066e-07 -8.43881179e-07 0)
(1.20114778e-06 -1.71501654e-06 0)
(1.22025047e-06 -1.56594192e-06 0)
(4.13145742e-07 -3.81596458e-07 0)
(-7.3343929e-07 1.15084935e-06 0)
(-1.48821354e-06 2.07414859e-06 0)
(-1.37359042e-06 1.78926788e-06 0)
(-4.58654972e-07 4.46581602e-07 0)
(7.54610832e-07 -1.16490042e-06 0)
(1.6894238e-06 -2.16053641e-06 0)
(2.04355714e-06 -2.16571606e-06 0)
(8.71152325e-07 -1.10546561e-06 0)
(-2.59371178e-07 2.99673003e-07 0)
(-3.2351342e-07 -2.32175407e-08 0)
(3.07756214e-07 -5.60238061e-07 0)
(8.28389285e-07 -8.03729991e-07 0)
(7.52469711e-07 -4.35255621e-07 0)
(3.58027861e-09 4.23530992e-07 0)
(-9.39899568e-07 1.20839846e-06 0)
(-1.36493162e-06 1.29022881e-06 0)
(-8.61937497e-07 4.72507673e-07 0)
(3.23160607e-07 -7.95098389e-07 0)
(1.41818769e-06 -1.68304504e-06 0)
(1.65823439e-06 -1.55434534e-06 0)
(8.31356985e-07 -4.27651336e-07 0)
(-5.64733936e-07 1.01231155e-06 0)
(-1.65638501e-06 1.87201235e-06 0)
(-1.7593574e-06 1.65069179e-06 0)
(-7.68735144e-07 5.47774182e-07 0)
(7.75178009e-07 -7.63734422e-07 0)
(1.98378702e-06 -1.66202231e-06 0)
(1.03562607e-06 -1.52213422e-06 0)
(-4.05725705e-07 4.14123449e-07 0)
(-8.16472812e-07 4.74758331e-07 0)
(-2.89512136e-07 -5.45169217e-08 0)
(5.89357075e-07 -7.87832154e-07 0)
(1.21024349e-06 -1.15720123e-06 0)
(1.00190436e-06 -7.33675119e-07 0)
(-4.34007507e-08 3.51583178e-07 0)
(-1.26216108e-06 1.40884831e-06 0)
(-1.75751424e-06 1.65636917e-06 0)
(-1.07450204e-06 8.10690063e-07 0)
(4.17113319e-07 -6.55959453e-07 0)
(1.74233572e-06 -1.80464999e-06 0)
(1.99349692e-06 -1.86943964e-06 0)
(9.67465573e-07 -7.87279004e-07 0)
(-6.8322895e-07 7.62964442e-07 0)
(-1.87795811e-06 1.83266851e-06 0)
(-1.80844309e-06 1.82680058e-06 0)
(-5.23257372e-07 7.96550051e-07 0)
(1.00335097e-06 -6.63589644e-07 0)
(7.36624855e-07 -1.43543591e-06 0)
(-3.00354757e-07 1.50745769e-07 0)
(-8.88565633e-07 7.21727903e-07 0)
(-9.21632943e-07 6.94393978e-07 0)
(-2.52035343e-07 -3.99339121e-08 0)
(8.30135245e-07 -1.04784509e-06 0)
(1.53935081e-06 -1.54265601e-06 0)
(1.21443845e-06 -1.00381147e-06 0)
(-7.754992e-08 3.62248699e-07 0)
(-1.50033883e-06 1.68746298e-06 0)
(-2.0273999e-06 2.03093252e-06 0)
(-1.20634588e-06 1.06767544e-06 0)
(4.74699569e-07 -6.39496472e-07 0)
(1.90261107e-06 -2.00044812e-06 0)
(2.11305965e-06 -2.13902471e-06 0)
(9.69334871e-07 -9.85402124e-07 0)
(-7.31637177e-07 6.93716778e-07 0)
(-1.8083777e-06 1.82623042e-06 0)
(-1.58331165e-06 1.71853216e-06 0)
(-4.75085312e-07 5.17976919e-07 0)
(9.95125732e-08 -7.31928518e-07 0)
(7.43331771e-08 -3.88481901e-07 0)
(-2.95146485e-07 4.17708007e-07 0)
(-1.03608673e-06 1.10748022e-06 0)
(-1.14728635e-06 9.88385764e-07 0)
(-2.92219573e-07 -1.74869293e-08 0)
(1.04573162e-06 -1.28408317e-06 0)
(1.86165874e-06 -1.87678286e-06 0)
(1.43045457e-06 -1.23330162e-06 0)
(-8.51581493e-08 3.5342519e-07 0)
(-1.68876336e-06 1.86955883e-06 0)
(-2.24887435e-06 2.2711073e-06 0)
(-1.32588281e-06 1.2331767e-06 0)
(4.88549246e-07 -5.97207592e-07 0)
(1.97457249e-06 -2.03708761e-06 0)
(2.14302415e-06 -2.18211017e-06 0)
(9.35308087e-07 -1.01981165e-06 0)
(-7.50019293e-07 5.89873104e-07 0)
(-1.75709816e-06 1.54489486e-06 0)
(-1.61832671e-06 1.33404392e-06 0)
(-5.34988415e-07 2.92144342e-07 0)
(5.0732313e-07 -8.16989644e-07 0)
(7.0014769e-07 -3.23459275e-07 0)
(-3.90401398e-07 7.4772567e-07 0)
(-1.39393903e-06 1.48554034e-06 0)
(-1.44533715e-06 1.25240314e-06 0)
(-3.22538397e-07 1.93456123e-08 0)
(1.26228993e-06 -1.47308448e-06 0)
(2.15213306e-06 -2.16373407e-06 0)
(1.60667715e-06 -1.45507442e-06 0)
(-1.01130961e-07 2.90164186e-07 0)
(-1.83374958e-06 1.94929143e-06 0)
(-2.39015469e-06 2.41175678e-06 0)
(-1.37282954e-06 1.36292666e-06 0)
(5.17586809e-07 -4.93615519e-07 0)
(1.9789827e-06 -1.93731322e-06 0)
(2.04073162e-06 -2.0910159e-06 0)
(7.47256661e-07 -1.00830495e-06 0)
(-8.996023e-07 4.52938674e-07 0)
(-1.75951844e-06 1.34606218e-06 0)
(-8.14099065e-07 1.07092812e-06 0)
(6.83609527e-07 -7.42988115e-07 0)
(1.43163901e-06 -9.89038049e-07 0)
(6.8294126e-07 -2.56406431e-07 0)
(-6.7736568e-07 9.44115131e-07 0)
(-1.76077576e-06 1.78622167e-06 0)
(-1.67988214e-06 1.50329286e-06 0)
(-3.24285137e-07 8.18526781e-08 0)
(1.44390071e-06 -1.6072096e-06 0)
(2.36513105e-06 -2.38849963e-06 0)
(1.71682157e-06 -1.64403065e-06 0)
(-1.19550408e-07 2.0138272e-07 0)
(-1.90155294e-06 1.94726092e-06 0)
(-2.41017395e-06 2.45157922e-06 0)
(-1.32709252e-06 1.42533097e-06 0)
(5.40198686e-07 -3.88593957e-07 0)
(1.85676064e-06 -1.77276323e-06 0)
(1.7445749e-06 -1.90055929e-06 0)
(4.52972669e-07 -8.44635438e-07 0)
(-8.59800574e-07 5.67829205e-07 0)
(-5.99069752e-07 1.15888369e-06 0)
(4.22169806e-07 -1.0323886e-07 0)
(1.30199018e-06 -1.03300596e-06 0)
(1.45210472e-06 -1.22984832e-06 0)
(6.17373631e-07 -3.76528547e-07 0)
(-8.87074424e-07 1.07109874e-06 0)
(-2.02550126e-06 2.05559654e-06 0)
(-1.84893646e-06 1.73471834e-06 0)
(-3.22255701e-07 1.627212e-07 0)
(1.56232619e-06 -1.67174509e-06 0)
(2.48168641e-06 -2.51955606e-06 0)
(1.75724896e-06 -1.76800467e-06 0)
(-1.30914454e-07 1.04942725e-07 0)
(-1.88133712e-06 1.85953797e-06 0)
(-2.31334455e-06 2.36676507e-06 0)
(-1.21764678e-06 1.38672759e-06 0)
(5.1936437e-07 -3.07435054e-07 0)
(1.61863181e-06 -1.52825198e-06 0)
(1.43370303e-06 -1.51945529e-06 0)
(4.64616484e-07 -4.81577712e-07 0)
(-5.56311727e-08 5.51688752e-07 0)
(-1.58303552e-07 7.25533388e-07 0)
(2.69787088e-07 -3.23236689e-07 0)
(1.31241809e-06 -1.43157492e-06 0)
(1.62035415e-06 -1.57230973e-06 0)
(6.72747858e-07 -4.8520321e-07 0)
(-1.01519258e-06 1.17903521e-06 0)
(-2.21542153e-06 2.26360926e-06 0)
(-1.96211258e-06 1.91631372e-06 0)
(-3.2193018e-07 2.56046897e-07 0)
(1.61011295e-06 -1.65421673e-06 0)
(2.49486003e-06 -2.53884944e-06 0)
(1.72460117e-06 -1.81310451e-06 0)
(-1.38379377e-07 7.28828317e-09 0)
(-1.78490773e-06 1.6883309e-06 0)
(-2.12378295e-06 2.16340584e-06 0)
(-1.06099827e-06 1.26839974e-06 0)
(5.02699599e-07 -2.08858365e-07 0)
(1.44774082e-06 -1.17965109e-06 0)
(1.36417708e-06 -1.11804481e-06 0)
(4.57773005e-07 -3.09329567e-07 0)
(-6.90006141e-07 1.16157582e-06 0)
(-1.04413296e-06 7.00202117e-07 0)
(2.70210231e-07 -6.36468393e-07 0)
(1.59666685e-06 -1.74790805e-06 0)
(1.8677791e-06 -1.79722268e-06 0)
(7.22552993e-07 -5.71803016e-07 0)
(-1.10956881e-06 1.22351783e-06 0)
(-2.32511615e-06 2.37429671e-06 0)
(-2.00562937e-06 2.02994285e-06 0)
(-3.18504199e-07 3.54896263e-07 0)
(1.58526822e-06 -1.556168e-06 0)
(2.40254996e-06 -2.44543662e-06 0)
(1.61783602e-06 -1.77528278e-06 0)
(-1.46990124e-07 -8.00176828e-08 0)
(-1.62359553e-06 1.45981401e-06 0)
(-1.84490515e-06 1.88650112e-06 0)
(-8.16613296e-07 1.1141326e-06 0)
(5.72156099e-07 -1.31159271e-07 0)
(1.32798265e-06 -9.72655227e-07 0)
(6.30969247e-07 -8.55710352e-07 0)
(-8.05392316e-07 8.46338268e-07 0)
(-1.75578786e-06 1.31256573e-06 0)
(-1.00690408e-06 6.45551609e-07 0)
(5.10752778e-07 -7.13031428e-07 0)
(1.8529141e-06 -1.89767331e-06 0)
(2.00336733e-06 -1.958181e-06 0)
(7.30436737e-07 -6.72652057e-07 0)
(-1.15143171e-06 1.18901086e-06 0)
(-2.3333775e-06 2.37737248e-06 0)
(-1.97115714e-06 2.06366834e-06 0)
(-3.10930333e-07 4.45714117e-07 0)
(1.49062395e-06 -1.39101697e-06 0)
(2.21292379e-06 -2.24926289e-06 0)
(1.44720494e-06 -1.65459641e-06 0)
(-1.49146125e-07 -1.38893572e-07 0)
(-1.39238033e-06 1.21104481e-06 0)
(-1.47137228e-06 1.56278761e-06 0)
(-5.35553685e-07 8.64191201e-07 0)
(4.98353402e-07 -2.35850905e-07 0)
(4.01676259e-07 -7.88851382e-07 0)
(-4.07440479e-07 -5.94057269e-08 0)
(-1.35212957e-06 1.04163075e-06 0)
(-1.64513512e-06 1.51267878e-06 0)
(-9.10952766e-07 8.30388955e-07 0)
(6.25280253e-07 -6.85035036e-07 0)
(1.94672086e-06 -1.9783253e-06 0)
(2.03510223e-06 -2.06399674e-06 0)
(7.23920835e-07 -7.72663395e-07 0)
(-1.12537354e-06 1.08351322e-06 0)
(-2.23950766e-06 2.27089503e-06 0)
(-1.86268205e-06 2.0088327e-06 0)
(-2.97621702e-07 5.1446111e-07 0)
(1.33896669e-06 -1.17683435e-06 0)
(1.94891146e-06 -1.96725661e-06 0)
(1.23782334e-06 -1.45826717e-06 0)
(-1.33071054e-07 -1.64224472e-07 0)
(-1.11946885e-06 9.41644875e-07 0)
(-1.13630966e-06 1.15484718e-06 0)
(-4.8736786e-07 5.20816763e-07 0)
(-2.72494702e-08 -2.55826564e-07 0)
(2.46092645e-07 -9.55955579e-07 0)
(-8.48999693e-08 4.5319698e-08 0)
(-1.20084232e-06 1.33920242e-06 0)
(-1.69303019e-06 1.78636667e-06 0)
(-9.55908926e-07 9.71038661e-07 0)
(6.27854121e-07 -6.37243672e-07 0)
(1.93515168e-06 -1.97075202e-06 0)
(1.99064851e-06 -2.08593042e-06 0)
(7.07465697e-07 -8.55221315e-07 0)
(-1.0397849e-06 9.18666642e-07 0)
(-2.05530013e-06 2.06529336e-06 0)
(-1.68722605e-06 1.87038444e-06 0)
(-2.73326949e-07 5.54182626e-07 0)
(1.15131622e-06 -9.3421382e-07 0)
(1.64050905e-06 -1.62840968e-06 0)
(1.00590214e-06 -1.21657669e-06 0)
(-1.35090257e-07 -1.81839357e-07 0)
(-9.27805852e-07 6.52201163e-07 0)
(-9.8557121e-07 7.90685772e-07 0)
(-3.5503812e-07 3.10602906e-07 0)
(7.18734313e-07 -1.22341709e-06 0)
(1.19110934e-06 -9.75421199e-07 0)
(5.56962115e-09 2.6121581e-07 0)
(-1.32581185e-06 1.48924596e-06 0)
(-1.80214834e-06 1.87639422e-06 0)
(-9.88469855e-07 1.04833517e-06 0)
(5.90615618e-07 -5.43462213e-07 0)
(1.83648501e-06 -1.86313583e-06 0)
(1.87170048e-06 -2.0176622e-06 0)
(6.77268711e-07 -9.02585686e-07 0)
(-9.05162365e-07 7.24385812e-07 0)
(-1.79690032e-06 1.79094767e-06 0)
(-1.45807661e-06 1.66440386e-06 0)
(-2.37584404e-07 5.56958862e-07 0)
(9.43551072e-07 -6.95269887e-07 0)
(1.30240745e-06 -1.27955974e-06 0)
(7.34284106e-07 -9.67135391e-07 0)
(-1.9803089e-07 -1.68611727e-07 0)
(-7.84261578e-07 4.87423635e-07 0)
(-3.9932558e-07 5.37841883e-07 0)
(7.08347401e-07 -6.75571485e-07 0)
(1.63328681e-06 -1.28427189e-06 0)
(1.12479142e-06 -9.10898806e-07 0)
(-1.36699126e-07 2.15605975e-07 0)
(-1.40590686e-06 1.42525871e-06 0)
(-1.78999564e-06 1.83758889e-06 0)
(-9.69844065e-07 1.07390735e-06 0)
(5.21949863e-07 -4.17030112e-07 0)
(1.66717682e-06 -1.65900459e-06 0)
(1.69656045e-06 -1.840736e-06 0)
(6.34747298e-07 -8.821796e-07 0)
(-7.43391009e-07 5.33512085e-07 0)
(-1.49882116e-06 1.46934495e-06 0)
(-1.20313184e-06 1.39413774e-06 0)
(-1.98833021e-07 5.06038945e-07 0)
(7.23467108e-07 -4.91393279e-07 0)
(9.46331272e-07 -9.45415068e-07 0)
(4.66852537e-07 -6.85891627e-07 0)
(-1.75738686e-07 -5.33100661e-08 0)
(-1.99861486e-07 3.66290367e-07 0)
(2.61648654e-07 2.96695807e-07 0)
(1.01540991e-06 -6.62260446e-07 0)
(1.40499005e-06 -1.31042492e-06 0)
(9.7389226e-07 -1.04374618e-06 0)
(-1.91384131e-07 4.76567147e-08 0)
(-1.34417022e-06 1.22855635e-06 0)
(-1.65823292e-06 1.67549568e-06 0)
(-8.84107151e-07 1.05684038e-06 0)
(4.56863294e-07 -2.27625288e-07 0)
(1.45319668e-06 -1.33011133e-06 0)
(1.4611897e-06 -1.55099039e-06 0)
(5.48354652e-07 -8.13363077e-07 0)
(-5.95960965e-07 3.21909882e-07 0)
(-1.19360531e-06 1.09085092e-06 0)
(-9.36296777e-07 1.06887952e-06 0)
(-1.51952964e-07 4.19733885e-07 0)
(5.18022925e-07 -3.03487839e-07 0)
(6.49919204e-07 -6.03785863e-07 0)
(3.4273685e-07 -3.88890353e-07 0)
(5.17702036e-08 3.09072545e-08 0)
(-2.82106677e-07 1.01516394e-06 0)
(-1.57727854e-07 3.99403377e-07 0)
(7.10971386e-07 -7.30582296e-07 0)
(1.22100974e-06 -1.41463514e-06 0)
(8.8346711e-07 -1.18270964e-06 0)
(-1.2951212e-07 -1.63295608e-07 0)
(-1.10990371e-06 9.92986748e-07 0)
(-1.36999444e-06 1.5304341e-06 0)
(-7.35737554e-07 1.10728721e-06 0)
(3.40966032e-07 2.80104931e-08 0)
(1.1237518e-06 -9.83810652e-07 0)
(1.1229796e-06 -1.29839168e-06 0)
(4.2223838e-07 -7.99969047e-07 0)
(-4.2882444e-07 8.32445782e-08 0)
(-8.50269607e-07 7.33518303e-07 0)
(-6.47247078e-07 7.93483745e-07 0)
(-9.07797719e-08 3.71879968e-07 0)
(3.62604575e-07 -1.19084956e-07 0)
(4.58842493e-07 -3.26963745e-07 0)
(1.78149943e-07 -1.78259288e-07 0)
(-5.73245183e-07 1.04797252e-06 0)
(-1.08575021e-06 1.10260525e-06 0)
(-4.02446949e-07 1.89573263e-07 0)
(5.60357308e-07 -9.0041811e-07 0)
(1.14914969e-06 -1.49567997e-06 0)
(9.51246629e-07 -1.18134181e-06 0)
(1.15153806e-07 -1.21493905e-07 0)
(-7.79268133e-07 1.01498377e-06 0)
(-1.1340496e-06 1.50683354e-06 0)
(-7.47212037e-07 1.07243159e-06 0)
(6.92804258e-08 4.39074655e-08 0)
(7.40493394e-07 -8.90909347e-07 0)
(8.49856108e-07 -1.1745434e-06 0)
(4.13440199e-07 -7.37013566e-07 0)
(-1.84160531e-07 2.06352137e-08 0)
(-5.13836451e-07 5.68259876e-07 0)
(-4.14054453e-07 6.29105093e-07 0)
(-6.10860376e-08 3.15483556e-07 0)
(2.27079978e-07 -4.05043082e-08 0)
(1.37634072e-07 -1.57953031e-07 0)
(-3.98319878e-07 3.95206958e-07 0)
(-1.0181803e-06 5.65118857e-07 0)
(-9.51300205e-07 2.8853516e-07 0)
(-2.90098623e-07 -1.90743741e-07 0)
(5.66314534e-07 -5.88670946e-07 0)
(1.06188098e-06 -6.39353707e-07 0)
(8.79110229e-07 -2.92369342e-07 0)
(1.55633828e-07 2.36455892e-07 0)
(-6.21064566e-07 6.10522624e-07 0)
(-9.57022639e-07 6.02471091e-07 0)
(-6.83787543e-07 2.42510877e-07 0)
(-4.5161147e-08 -2.17105899e-07 0)
(5.08281972e-07 -4.86265473e-07 0)
(6.48543846e-07 -4.32680269e-07 0)
(3.75855164e-07 -1.48769591e-07 0)
(-3.57721852e-08 1.44553788e-07 0)
(-2.79566995e-07 2.69186426e-07 0)
(-2.42284426e-07 2.00643725e-07 0)
(-4.93978497e-08 4.82936809e-08 0)
(2.4083846e-08 -4.52028685e-08 0)
)
;

boundaryField
{
    top
    {
        type            calculated;
        value           uniform (-5.55111512e-15 0 0);
    }
    left
    {
        type            calculated;
        value           uniform (0 0 0);
    }
    right
    {
        type            calculated;
        value           uniform (0 0 0);
    }
    bottom
    {
        type            calculated;
        value           uniform (0 0 0);
    }
    back0
    {
        type            empty;
    }
    front1
    {
        type            empty;
    }
}


// ************************************************************************* //
