/*--------------------------------*- C++ -*----------------------------------*\
| =========                 |                                                 |
| \\      /  F ield         | OpenFOAM: The Open Source CFD Toolbox           |
|  \\    /   O peration     | Version:  3.0.1                                 |
|   \\  /    A nd           | Web:      www.OpenFOAM.org                      |
|    \\/     M anipulation  |                                                 |
\*---------------------------------------------------------------------------*/
FoamFile
{
    version     2.0;
    format      ascii;
    class       volScalarField;
    location    "2";
    object      p;
}
// * * * * * * * * * * * * * * * * * * * * * * * * * * * * * * * * * * * * * //

dimensions      [0 2 -2 0 0 0 0];

internalField   nonuniform List<scalar> 
400
(
1.88112154e-05
-0.0581693831
-0.130458018
-0.186298482
-0.207259183
-0.185014679
-0.11893666
-0.0139356568
0.121305372
0.275669565
0.436657711
0.591288995
0.72696514
0.832406723
0.898765871
0.92103241
0.899849376
0.84367985
0.771165355
0.71297816
0.0576753815
-0.00210638556
-0.0588025254
-0.097329498
-0.10852543
-0.0865387334
-0.0306248393
0.0556661187
0.165743978
0.290957698
0.421436495
0.546878332
0.657329145
0.7440009
0.800163572
0.822180474
0.810803125
0.771992783
0.715101829
0.655360171
0.134149948
0.0513442025
-0.0100265651
-0.0456188706
-0.0547540868
-0.0341901935
0.0160086713
0.092389078
0.189158603
0.298891972
0.413155828
0.523147097
0.620342439
0.697166862
0.747671144
0.768297771
0.758976348
0.723056503
0.661434742
0.578660227
0.204822776
0.0902550778
0.0139014738
-0.0267151959
-0.0378422611
-0.0185432515
0.0299082413
0.103414613
0.196124313
0.300961398
0.410059744
0.515244918
0.608538861
0.682676159
0.731599309
0.751060614
0.739752073
0.698720564
0.621984118
0.507358793
0.253519386
0.10528681
0.0109556643
-0.036828853
-0.0502375125
-0.0303871946
0.020103949
0.0961538112
0.191419194
0.298710699
0.410260319
0.51804978
0.61416698
0.691173728
0.742444922
0.762672767
0.749151759
0.700865456
0.605953299
0.457460006
0.268654987
0.085953987
-0.0271671867
-0.0818988075
-0.0958354846
-0.0720622402
-0.0146888999
0.0699457989
0.174683484
0.291885983
0.413549081
0.531474914
0.637472784
0.723575865
0.782237748
0.806781933
0.79292346
0.73764251
0.62367859
0.440354877
0.240202926
0.0218560332
-0.109779107
-0.169443741
-0.180296909
-0.147582687
-0.0771656271
0.0230715298
0.14488992
0.279970688
0.419865594
0.555994747
0.679669831
0.782140288
0.854637425
0.888782889
0.878401682
0.818238636
0.685447833
0.465907374
0.157390818
-0.098453466
-0.247324439
-0.307972499
-0.310025488
-0.261446624
-0.170293151
-0.0463213836
0.10094428
0.262398104
0.429100049
0.592056427
0.742022103
0.869331834
0.96374902
1.01480787
1.01394181
0.953037335
0.802681336
0.544819029
0.00683174991
-0.28902819
-0.452551064
-0.507795301
-0.492697655
-0.418967985
-0.297510677
-0.140331182
0.0416369388
0.238555031
0.441143932
0.640177826
0.825998032
0.988056019
1.11448192
1.19228241
1.20976327
1.15483362
0.989552412
0.690572037
-0.229298717
-0.568106435
-0.741484161
-0.78136922
-0.73714701
-0.625899746
-0.462263337
-0.260871774
-0.0340440532
0.207932742
0.455861761
0.700748352
0.932938324
1.14127108
1.31223279
1.42985709
1.47834005
1.43986245
1.26463918
0.921349353
-0.575715876
-0.960177802
-1.13453044
-1.14346203
-1.05289809
-0.887658596
-0.667168526
-0.408949545
-0.126400484
0.170376495
0.473057634
0.773719479
1.06351108
1.33129966
1.56222027
1.73702165
1.83462887
1.82897051
1.65308338
1.26261587
-1.0681601
-1.49908685
-1.65782896
-1.61105376
-1.44923105
-1.20806758
-0.912782159
-0.583649632
-0.234325081
0.126429781
0.492449701
0.858208821
1.21696986
1.55882215
1.86840223
2.12329408
2.29605953
2.34904624
2.18980218
1.75142029
-1.76126962
-2.23294388
-2.34472159
-2.20254327
-1.93333744
-1.58728199
-1.19575576
-0.780724832
-0.354377368
0.0777708803
0.513620569
0.951950313
1.39008915
1.82133508
2.2316419
2.59654981
2.88185758
3.03457685
2.92451814
2.44449342
-2.74488189
-3.23204306
-3.23653805
-2.93504461
-2.50657325
-2.01826509
-1.50606075
-0.990668588
-0.47962761
0.0276965437
0.535870404
1.05047664
1.5755719
2.11068841
2.64644858
3.15947018
3.6104658
3.92851302
3.92980028
3.43487521
-4.1774644
-4.60037205
-4.37985174
-3.81685002
-3.15675794
-2.48068408
-1.82281231
-1.19617276
-0.598331603
-0.0184594621
0.557850575
1.14587844
1.75964336
2.40909105
3.09506489
3.80199403
4.4920965
5.07955258
5.31261993
4.88573313
-6.34322716
-6.48579361
-5.81649446
-4.83464511
-3.84761624
-2.93383774
-2.11032284
-1.37031392
-0.693346071
-0.0534010781
0.577042235
1.22569863
1.91985653
2.68496148
3.54035495
4.49080947
5.515983
6.53204762
7.22416442
7.08735242
-9.75187082
-9.07981954
-7.56452023
-5.94263405
-4.51406247
-3.31583996
-2.31970639
-1.47907167
-0.744405359
-0.069263083
0.589471352
1.27361008
2.02618143
2.89337873
3.92418815
5.16416029
6.63917793
8.306608
9.8589754
10.5557882
-15.5433185
-12.6187422
-9.51834695
-6.98633481
-5.01738366
-3.52003365
-2.37790046
-1.47714337
-0.727264284
-0.0583179078
0.587949327
1.26607357
2.03432623
2.96265879
4.14156181
5.68497915
7.70866496
10.2996286
13.4578479
16.43934
-26.6989241
-17.2350911
-10.9791899
-7.32481809
-4.90989882
-3.25996992
-2.11100082
-1.26486702
-0.59168264
-0.0063364148
0.554967014
1.14984723
1.84214182
2.71704324
3.90466474
5.60433421
8.08267703
11.8138436
18.158803
27.7253942
-45.35002
-21.7256672
-10.5196077
-6.01118763
-3.66543721
-2.26804802
-1.38773581
-0.779786353
-0.311063169
0.0921484541
0.479152224
0.892785752
1.3823051
2.02123692
2.94240814
4.39198799
6.80872053
11.4142828
22.7343793
46.4739189
)
;

boundaryField
{
    top
    {
        type            zeroGradient;
    }
    left
    {
        type            zeroGradient;
    }
    right
    {
        type            zeroGradient;
    }
    bottom
    {
        type            zeroGradient;
    }
    back0
    {
        type            empty;
    }
    front1
    {
        type            empty;
    }
}


// ************************************************************************* //
