/*--------------------------------*- C++ -*----------------------------------*\
| =========                 |                                                 |
| \\      /  F ield         | OpenFOAM: The Open Source CFD Toolbox           |
|  \\    /   O peration     | Version:  3.0.0                                 |
|   \\  /    A nd           | Web:      www.OpenFOAM.org                      |
|    \\/     M anipulation  |                                                 |
\*---------------------------------------------------------------------------*/
FoamFile
{
    version     2.0;
    format      ascii;
    class       volScalarField;
    location    "2";
    object      p;
}
// * * * * * * * * * * * * * * * * * * * * * * * * * * * * * * * * * * * * * //

dimensions      [0 2 -2 0 0 0 0];

internalField   nonuniform List<scalar> 
400
(
1.88112e-05
-0.0581694
-0.130458
-0.186298
-0.207259
-0.185015
-0.118937
-0.0139357
0.121305
0.27567
0.436658
0.591289
0.726965
0.832407
0.898766
0.921032
0.899849
0.84368
0.771165
0.712978
0.0576754
-0.00210639
-0.0588025
-0.0973295
-0.108525
-0.0865387
-0.0306248
0.0556661
0.165744
0.290958
0.421436
0.546878
0.657329
0.744001
0.800164
0.82218
0.810803
0.771993
0.715102
0.65536
0.13415
0.0513442
-0.0100266
-0.0456189
-0.0547541
-0.0341902
0.0160087
0.0923891
0.189159
0.298892
0.413156
0.523147
0.620342
0.697167
0.747671
0.768298
0.758976
0.723057
0.661435
0.57866
0.204823
0.0902551
0.0139015
-0.0267152
-0.0378423
-0.0185433
0.0299082
0.103415
0.196124
0.300961
0.41006
0.515245
0.608539
0.682676
0.731599
0.751061
0.739752
0.698721
0.621984
0.507359
0.253519
0.105287
0.0109557
-0.0368289
-0.0502375
-0.0303872
0.0201039
0.0961538
0.191419
0.298711
0.41026
0.51805
0.614167
0.691174
0.742445
0.762673
0.749152
0.700865
0.605953
0.45746
0.268655
0.085954
-0.0271672
-0.0818988
-0.0958355
-0.0720622
-0.0146889
0.0699458
0.174683
0.291886
0.413549
0.531475
0.637473
0.723576
0.782238
0.806782
0.792923
0.737643
0.623679
0.440355
0.240203
0.021856
-0.109779
-0.169444
-0.180297
-0.147583
-0.0771656
0.0230715
0.14489
0.279971
0.419866
0.555995
0.67967
0.78214
0.854637
0.888783
0.878402
0.818239
0.685448
0.465907
0.157391
-0.0984535
-0.247324
-0.307972
-0.310025
-0.261447
-0.170293
-0.0463214
0.100944
0.262398
0.4291
0.592056
0.742022
0.869332
0.963749
1.01481
1.01394
0.953037
0.802681
0.544819
0.00683175
-0.289028
-0.452551
-0.507795
-0.492698
-0.418968
-0.297511
-0.140331
0.0416369
0.238555
0.441144
0.640178
0.825998
0.988056
1.11448
1.19228
1.20976
1.15483
0.989552
0.690572
-0.229299
-0.568106
-0.741484
-0.781369
-0.737147
-0.6259
-0.462263
-0.260872
-0.0340441
0.207933
0.455862
0.700748
0.932938
1.14127
1.31223
1.42986
1.47834
1.43986
1.26464
0.921349
-0.575716
-0.960178
-1.13453
-1.14346
-1.0529
-0.887659
-0.667169
-0.40895
-0.1264
0.170376
0.473058
0.773719
1.06351
1.3313
1.56222
1.73702
1.83463
1.82897
1.65308
1.26262
-1.06816
-1.49909
-1.65783
-1.61105
-1.44923
-1.20807
-0.912782
-0.58365
-0.234325
0.12643
0.49245
0.858209
1.21697
1.55882
1.8684
2.12329
2.29606
2.34905
2.1898
1.75142
-1.76127
-2.23294
-2.34472
-2.20254
-1.93334
-1.58728
-1.19576
-0.780725
-0.354377
0.0777709
0.513621
0.95195
1.39009
1.82134
2.23164
2.59655
2.88186
3.03458
2.92452
2.44449
-2.74488
-3.23204
-3.23654
-2.93504
-2.50657
-2.01827
-1.50606
-0.990669
-0.479628
0.0276965
0.53587
1.05048
1.57557
2.11069
2.64645
3.15947
3.61047
3.92851
3.9298
3.43488
-4.17746
-4.60037
-4.37985
-3.81685
-3.15676
-2.48068
-1.82281
-1.19617
-0.598332
-0.0184595
0.557851
1.14588
1.75964
2.40909
3.09506
3.80199
4.4921
5.07955
5.31262
4.88573
-6.34323
-6.48579
-5.81649
-4.83465
-3.84762
-2.93384
-2.11032
-1.37031
-0.693346
-0.0534011
0.577042
1.2257
1.91986
2.68496
3.54035
4.49081
5.51598
6.53205
7.22416
7.08735
-9.75187
-9.07982
-7.56452
-5.94263
-4.51406
-3.31584
-2.31971
-1.47907
-0.744405
-0.0692631
0.589471
1.27361
2.02618
2.89338
3.92419
5.16416
6.63918
8.30661
9.85898
10.5558
-15.5433
-12.6187
-9.51835
-6.98633
-5.01738
-3.52003
-2.3779
-1.47714
-0.727264
-0.0583179
0.587949
1.26607
2.03433
2.96266
4.14156
5.68498
7.70866
10.2996
13.4578
16.4393
-26.6989
-17.2351
-10.9792
-7.32482
-4.9099
-3.25997
-2.111
-1.26487
-0.591683
-0.00633641
0.554967
1.14985
1.84214
2.71704
3.90466
5.60433
8.08268
11.8138
18.1588
27.7254
-45.35
-21.7257
-10.5196
-6.01119
-3.66544
-2.26805
-1.38774
-0.779786
-0.311063
0.0921485
0.479152
0.892786
1.38231
2.02124
2.94241
4.39199
6.80872
11.4143
22.7344
46.4739
)
;

boundaryField
{
    top
    {
        type            zeroGradient;
    }
    left
    {
        type            zeroGradient;
    }
    right
    {
        type            zeroGradient;
    }
    bottom
    {
        type            zeroGradient;
    }
    back0
    {
        type            empty;
    }
    front1
    {
        type            empty;
    }
}


// ************************************************************************* //
