/*--------------------------------*- C++ -*----------------------------------*\
| =========                 |                                                 |
| \\      /  F ield         | OpenFOAM: The Open Source CFD Toolbox           |
|  \\    /   O peration     | Version:  3.0.0                                 |
|   \\  /    A nd           | Web:      www.OpenFOAM.org                      |
|    \\/     M anipulation  |                                                 |
\*---------------------------------------------------------------------------*/
FoamFile
{
    version     2.0;
    format      ascii;
    class       surfaceScalarField;
    location    "2";
    object      phi;
}
// * * * * * * * * * * * * * * * * * * * * * * * * * * * * * * * * * * * * * //

dimensions      [0 3 -1 0 0 0 0];

internalField   nonuniform List<scalar> 
760
(
1.48286e-05
-1.48451e-05
-2.06694e-05
3.5498e-05
-0.000112522
9.18528e-05
-0.000244615
0.000132093
-0.00039682
0.000152205
-0.00054971
0.000152889
-0.000686467
0.000136757
-0.000793772
0.000107305
-0.000862077
6.83052e-05
-0.000885638
2.35613e-05
-0.000862489
-2.31488e-05
-0.000794446
-6.80428e-05
-0.000687159
-0.000107287
-0.000550173
-0.000136986
-0.000396908
-0.000153266
-0.000244342
-0.000152565
-0.000112069
-0.000132274
-2.02876e-05
-9.1781e-05
1.49802e-05
-3.52676e-05
1.49801e-05
-3.27974e-05
1.79523e-05
-0.000177274
0.000179975
-0.000430663
0.000345242
-0.000762839
0.000464269
-0.00113362
0.000522985
-0.00150162
0.000520889
-0.00182937
0.000464512
-0.0020862
0.000364134
-0.00224961
0.000231716
-0.0023059
7.98498e-05
-0.00225038
-7.86722e-05
-0.00208746
-0.000230963
-0.00183067
-0.000364074
-0.0015025
-0.000465153
-0.00113381
-0.000521959
-0.000762352
-0.000524024
-0.000429806
-0.00046482
-0.000176505
-0.000345082
-3.24529e-05
-0.00017932
-1.74727e-05
-9.02058e-05
0.000108158
-0.000352896
0.000442665
-0.000760602
0.000752948
-0.00126724
0.000970907
-0.00181762
0.00107336
-0.00235582
0.00105909
-0.00283113
0.000939823
-0.00320177
0.000734779
-0.00343697
0.000466907
-0.00351788
0.000160761
-0.00343806
-0.000158484
-0.00320361
-0.000465415
-0.0028331
-0.000734582
-0.0023573
-0.000940954
-0.00181819
-0.00106107
-0.00126685
-0.00107537
-0.000759602
-0.000972064
-0.000351895
-0.00075279
-8.97163e-05
-0.000441498
-0.000107189
-0.000142726
0.000250884
-0.000521156
0.000821096
-0.00107878
0.00131057
-0.00174927
0.0016414
-0.00246204
0.00178614
-0.00314896
0.00174601
-0.00374967
0.00154053
-0.00421509
0.0012002
-0.0045093
0.000761123
-0.00461045
0.00026191
-0.00451104
-0.000257895
-0.00421808
-0.00075838
-0.00375308
-0.00119957
-0.0031519
-0.00154214
-0.00246381
-0.00174916
-0.00174964
-0.00178954
-0.00107807
-0.00164363
-0.000520127
-0.00131073
-0.000142137
-0.000819488
-0.000249326
-0.000191108
0.000441992
-0.00068222
0.00131221
-0.00138732
0.00201567
-0.0022171
0.00247118
-0.00308417
0.0026532
-0.00390865
0.00257049
-0.0046224
0.00225428
-0.00517146
0.00174926
-0.00551709
0.00110675
-0.00563594
0.000380764
-0.00552002
-0.000373813
-0.00517665
-0.00110175
-0.00462865
-0.00174757
-0.00391458
-0.00225621
-0.00308861
-0.00257514
-0.00221944
-0.00265871
-0.00138773
-0.00247534
-0.000681574
-0.00201689
-0.000190526
-0.00131054
-0.000439852
-0.000238305
0.000680297
-0.000842096
0.001916
-0.00169514
0.00286872
-0.00268292
0.00345896
-0.00369984
0.00367013
-0.00465445
0.0035251
-0.00547226
0.00307209
-0.0060965
0.0023735
-0.00648764
0.00149789
-0.00662233
0.000515452
-0.00649254
-0.000503598
-0.00610533
-0.00148896
-0.00548329
-0.00236961
-0.00466558
-0.00307392
-0.00370912
-0.0035316
-0.00268907
-0.00367875
-0.00169798
-0.00346643
-0.000842534
-0.00287233
-0.000237931
-0.00191514
-0.000677783
-0.000287378
0.000967675
-0.00100782
0.00263644
-0.00201202
0.00387291
-0.00315755
0.00460449
-0.0043195
0.00483208
-0.0053955
0.00460109
-0.00630668
0.00398327
-0.0069961
0.00306291
-0.00742582
0.00192761
-0.00757414
0.000663778
-0.0074336
-0.000644145
-0.00701031
-0.00191225
-0.00632488
-0.00305504
-0.0054146
-0.00398421
-0.00433643
-0.00460977
-0.00317001
-0.00484517
-0.00201912
-0.00461732
-0.00101038
-0.00388107
-0.000287536
-0.00263798
-0.000965319
-0.000341212
0.00130889
-0.00118607
0.0034813
-0.00234618
0.00503302
-0.0036475
0.00590582
-0.0049451
0.00612969
-0.00612757
0.00578356
-0.00711506
0.00497076
-0.00785418
0.00380204
-0.00831194
0.00238536
-0.00847044
0.000822277
-0.00832351
-0.000791078
-0.00787556
-0.0023602
-0.00714295
-0.00378765
-0.00615769
-0.00496946
-0.00497294
-0.00579452
-0.00366928
-0.00614884
-0.00235988
-0.00592672
-0.00119212
-0.00504883
-0.000342356
-0.00348774
-0.00130767
-0.000402662
0.00171155
-0.00138288
0.00446152
-0.00270315
0.00635328
-0.00415278
0.00735545
-0.00556709
0.007544
-0.00682953
0.007046
-0.00786488
0.00600611
-0.00862889
0.00456605
-0.00909798
0.00285446
-0.009261
0.000985288
-0.00911404
-0.00093803
-0.00865885
-0.00281539
-0.00790465
-0.00454185
-0.00687353
-0.00600058
-0.0056091
-0.00705895
-0.00418713
-0.00757081
-0.00272616
-0.00738769
-0.00139412
-0.00638087
-0.000405385
-0.00447648
-0.00171306
-0.000475111
0.00218666
-0.00160423
0.00559064
-0.00308523
0.00783428
-0.00466469
0.00893491
-0.00616057
0.00903988
-0.00745844
0.00834387
-0.00849632
0.00704399
-0.00924694
0.00531668
-0.00970204
0.00330956
-0.00986075
0.001144
-0.00972276
-0.00107603
-0.00928598
-0.00325216
-0.008549
-0.00527884
-0.0075181
-0.00703148
-0.00621928
-0.00835777
-0.00471456
-0.00907553
-0.0031203
-0.00898195
-0.00162256
-0.00787861
-0.000480137
-0.00561891
-0.0021932
-0.000563484
0.00275014
-0.00185696
0.00688412
-0.00349063
0.00946795
-0.00516239
0.0106067
-0.00667967
0.0105572
-0.00794251
0.00960671
-0.00891481
0.00801628
-0.00959641
0.00599828
-0.0100013
0.00371446
-0.0101429
0.00128563
-0.0100259
-0.00119309
-0.00964324
-0.0036348
-0.00897919
-0.00594289
-0.00801729
-0.00799338
-0.00675563
-0.00961943
-0.00522944
-0.0106017
-0.00353999
-0.0106714
-0.00188426
-0.00953435
-0.000571636
-0.00693153
-0.00276483
-0.000675948
0.00342609
-0.00214983
0.008358
-0.00391098
0.0112291
-0.00560625
0.0123019
-0.00704803
0.0119989
-0.00817076
0.0107294
-0.0089812
0.00882672
-0.00951808
0.00653516
-0.0098246
0.00402098
-0.00993194
0.00139296
-0.00985079
-0.00127423
-0.00956873
-0.00391686
-0.00905249
-0.00645913
-0.00825621
-0.00878965
-0.00713822
-0.0107374
-0.00568945
-0.0120505
-0.00397535
-0.0123855
-0.00218752
-0.0113222
-0.000688081
-0.00843097
-0.00345291
-0.000826649
0.00425274
-0.00249342
0.0100248
-0.00432418
0.0130599
-0.0059246
0.0139024
-0.00714291
0.0132173
-0.00797782
0.0115644
-0.00849943
0.00934833
-0.0087964
0.00683213
-0.0089457
0.00417028
-0.00899765
0.00144491
-0.00896948
-0.0013024
-0.00884345
-0.00404289
-0.00856804
-0.00673455
-0.00806388
-0.00929382
-0.00723868
-0.0115626
-0.00601824
-0.0132709
-0.00440133
-0.0140024
-0.00254176
-0.0131818
-0.000843509
-0.0101292
-0.00429642
-0.00103952
0.00529227
-0.00289549
0.0118807
-0.00467634
0.0148407
-0.0059872
0.0152132
-0.0067682
0.0139982
-0.0071221
0.0119183
-0.00720203
0.00942827
-0.00715182
0.00678191
-0.00708047
0.00409894
-0.00705438
0.00141881
-0.00709613
-0.00126064
-0.00718439
-0.00395462
-0.00725315
-0.00666579
-0.00719199
-0.00935498
-0.00685342
-0.0119012
-0.0060786
-0.0140457
-0.00475889
-0.0153221
-0.00295227
-0.0149884
-0.00106147
-0.01202
-0.00535789
-0.00135025
0.00664252
-0.00334026
0.0138707
-0.00483768
0.0163381
-0.00555405
0.0159296
-0.00561057
0.0140548
-0.0052565
0.0115642
-0.00473592
0.00890768
-0.0042386
0.0062846
-0.00389222
0.00375256
-0.00376903
0.00129562
-0.00389327
-0.0011364
-0.00424393
-0.00360396
-0.00475114
-0.00615859
-0.00528769
-0.00881842
-0.00566131
-0.0115276
-0.00562173
-0.0140853
-0.00491057
-0.0160333
-0.00339873
-0.0165002
-0.00137655
-0.0140422
-0.00673444
-0.00179038
0.00843289
-0.00371836
0.0157987
-0.00450184
0.0171216
-0.0041818
0.0156095
-0.00317452
0.0130475
-0.00189547
0.0102851
-0.00065557
0.00766778
0.000344295
0.00528473
0.000987448
0.00310941
0.0012145
0.00106857
0.001006
-0.000927902
0.000376741
-0.0029747
-0.000618094
-0.00516375
-0.00186474
-0.00757178
-0.00316257
-0.0102297
-0.00419629
-0.0130516
-0.00454021
-0.0156894
-0.00376394
-0.0172765
-0.00181751
-0.0159886
-0.00855195
-0.00230764
0.0107405
-0.00363212
0.0171232
-0.00297442
0.0164639
-0.00106889
0.013704
0.00129962
0.010679
0.00360818
0.00797659
0.00556238
0.00571358
0.00701812
0.00382899
0.00791405
0.00221348
0.00822762
0.000754993
0.00795213
-0.000652411
0.00708965
-0.00211222
0.00565787
-0.00373197
0.00371317
-0.00562708
0.00139572
-0.00791228
-0.00100057
-0.0106553
-0.00294595
-0.013744
-0.00363941
-0.016583
-0.00232572
-0.0173023
-0.0108777
-0.00251428
0.0132548
-0.00191886
0.0165278
0.00123205
0.013313
0.00516961
0.00976646
0.00890995
0.00693863
0.0120477
0.00483884
0.0144622
0.00329909
0.0161533
0.00213788
0.0171566
0.00121017
0.0175036
0.000408027
0.0172053
-0.000354141
0.016248
-0.00115492
0.0145967
-0.00208065
0.0122107
-0.00324113
0.00908364
-0.00478518
0.0053295
-0.00690118
0.00135185
-0.00976632
-0.00185633
-0.0133748
-0.00250263
-0.016656
-0.0133803
-0.000525871
0.0137807
0.00469117
0.0113107
0.0111379
0.00686626
0.0167192
0.00418517
0.0210438
0.00261406
0.0242218
0.00166081
0.0264601
0.00106076
0.0279396
0.000658438
0.0287869
0.000362862
0.029075
0.000119905
0.0288277
-0.000106833
0.0280214
-0.000348598
0.0265825
-0.000641792
0.0243821
-0.00104069
0.021234
-0.0016371
0.0169223
-0.00258953
0.0113262
-0.00417016
0.00483124
-0.00687991
-0.000460419
-0.0113644
-0.0138407
0.0137807
0.0250914
0.0319577
0.0361429
0.0387569
0.0404177
0.0414785
0.0421369
0.0424998
0.0426197
0.0425129
0.0421643
0.0415225
0.0404818
0.0388447
0.0362552
0.032085
0.0252051
0.0138407
)
;

boundaryField
{
    top
    {
        type            calculated;
        value           uniform 0;
    }
    left
    {
        type            calculated;
        value           uniform 0;
    }
    right
    {
        type            calculated;
        value           uniform 0;
    }
    bottom
    {
        type            calculated;
        value           uniform 0;
    }
    back0
    {
        type            empty;
        value           nonuniform 0();
    }
    front1
    {
        type            empty;
        value           nonuniform 0();
    }
}


// ************************************************************************* //
