/*--------------------------------*- C++ -*----------------------------------*\
| =========                 |                                                 |
| \\      /  F ield         | OpenFOAM: The Open Source CFD Toolbox           |
|  \\    /   O peration     | Version:  3.0.1                                 |
|   \\  /    A nd           | Web:      www.OpenFOAM.org                      |
|    \\/     M anipulation  |                                                 |
\*---------------------------------------------------------------------------*/
FoamFile
{
    version     2.0;
    format      ascii;
    class       volScalarField;
    location    "9";
    object      magVorticity;
}
// * * * * * * * * * * * * * * * * * * * * * * * * * * * * * * * * * * * * * //

dimensions      [0 0 -1 0 0 0 0];

internalField   nonuniform List<scalar> 
400
(
0.00347019946
0.0221846963
0.0755171332
0.156108456
0.254454154
0.358690598
0.457259049
0.540229217
0.59992049
0.631138418
0.631252058
0.600220504
0.540607973
0.457582556
0.358850521
0.254412231
0.155913834
0.0752822232
0.0220149172
0.00355281029
0.021856931
0.0761113223
0.128104123
0.186678274
0.251556459
0.318273243
0.380917453
0.433681219
0.471724291
0.49163407
0.491655181
0.471784264
0.43377098
0.381024557
0.318383864
0.251655362
0.186746453
0.128115732
0.0760345077
0.021676381
0.075332753
0.132300159
0.174101853
0.210913828
0.246757763
0.281835061
0.31434588
0.341749115
0.361586258
0.371991026
0.371977469
0.361565415
0.341771974
0.314471342
0.282098428
0.247141165
0.211330875
0.174407468
0.132330368
0.0749742625
0.162176018
0.203668172
0.225096455
0.236099221
0.242668926
0.247868111
0.25276378
0.257268335
0.260797372
0.262735886
0.262728515
0.260811003
0.257394685
0.253108161
0.248492095
0.243536221
0.237046148
0.225845528
0.203891889
0.161606496
0.282044972
0.29514955
0.28656855
0.265744812
0.239935019
0.214143849
0.191481228
0.173666859
0.161526616
0.155399718
0.15541623
0.161627198
0.173982966
0.192164912
0.215285011
0.241479698
0.267443784
0.287984144
0.295735804
0.281301971
0.434347942
0.408435985
0.360421011
0.300489446
0.237244759
0.17729612
0.12531112
0.084332817
0.0561929576
0.0419006901
0.0419279304
0.0563468299
0.084801649
0.12632041
0.178995511
0.239588791
0.303149977
0.362772642
0.409645643
0.433583257
0.619556208
0.544059443
0.446464701
0.338793277
0.231436439
0.132583248
0.048165735
0.017848905
0.063008949
0.085928003
0.085943746
0.062951088
0.017437488
0.049284276
0.134684776
0.234547301
0.342544547
0.450033512
0.546256028
0.619098086
0.839525414
0.702185334
0.543057121
0.377212099
0.217452933
0.073646317
0.047271785
0.140843074
0.20444401
0.236661242
0.236825161
0.204780907
0.140930996
0.046546597
0.075693987
0.221035469
0.382010884
0.548083442
0.705839831
0.839948354
1.09750754
0.882743856
0.647103567
0.410205614
0.188018733
0.00785144
0.169874921
0.293726618
0.377236291
0.419443616
0.419921446
0.378445893
0.295043972
0.170420423
0.00673292
0.191378338
0.415708869
0.653702525
0.888420822
1.09970101
1.39816963
1.08514946
0.753480343
0.429411725
0.132938139
0.12278154
0.330437344
0.486868701
0.59131062
0.643954154
0.64497329
0.594058639
0.490463796
0.333573976
0.12400402
0.134821327
0.434805421
0.761507928
1.09345669
1.40339405
1.74784957
1.30760404
0.853724607
0.422202166
0.03788162
0.28536181
0.5420692
0.73198709
0.85721592
0.920105953
0.921938925
0.862315347
0.739187645
0.54955926
0.290944
0.03632074
0.425987545
0.86257429
1.31908029
1.75776059
2.15519794
1.54564017
0.9334946
0.369131911
0.11752991
0.51424723
0.82055673
1.04197661
1.18562213
1.25737506
1.2602917
1.193903
1.05421609
0.83444903
0.52674999
0.12529899
0.368895884
0.941805847
1.56054196
2.17180758
2.63220549
1.78887522
0.967690445
0.239598257
0.3625581
0.83381768
1.18448708
1.4303073
1.58632444
1.66362104
1.66779451
1.59836649
1.44873157
1.20668325
0.85599261
0.37996021
0.231856188
0.972967729
1.80680199
2.65772487
3.19470504
2.01329419
0.910984555
0.01532095
0.73915961
1.27527865
1.65468772
1.90964428
2.0665334
2.14325838
2.14861691
2.08223008
1.93442289
1.68608634
1.3092082
0.76965781
0.03498489
0.909197482
2.03256242
3.23114952
3.85814446
2.16246379
0.679540807
0.473964597
1.30613507
1.87648167
2.25208866
2.48915648
2.62821219
2.69470446
2.70074615
2.64620259
2.5185102
2.29122734
1.9219717
1.35170327
0.509966128
0.665013646
2.17916331
3.90645651
4.61806723
2.10223494
0.116974423
1.25889838
2.14088094
2.67795317
2.99247833
3.16984142
3.26432424
3.30723183
3.31287566
3.28149139
3.19904378
3.03386915
2.73013774
2.19912047
1.31304038
0.083510738
2.1092257
4.67646476
5.38281773
1.5109028
1.06365024
2.54895702
3.33100655
3.71033798
3.87606102
3.93734995
3.95421914
3.95776117
3.96139933
3.96574105
3.95845959
3.90910631
3.75722588
3.39102287
2.61511352
1.11818774
1.49842173
5.44419926
5.62391117
0.391739691
3.35510611
4.56177245
4.9386033
4.96630745
4.87026423
4.75280946
4.6592179
4.6087675
4.60877942
4.65999257
4.75660452
4.88089278
4.98884033
4.97794516
4.61856062
3.41760432
0.427190019
5.67251627
2.59164181
5.39105665
7.44057752
7.42976024
6.90958346
6.35272116
5.88829952
5.54481984
5.3208575
5.20917534
5.20513704
5.30915428
5.52684106
5.86689544
6.33298849
6.89947798
7.43841623
7.46895733
5.41714978
2.61856008
14.0725103
16.3742619
13.6227995
10.8198515
8.91416203
7.63815876
6.7765112
6.21020496
5.8657147
5.70033664
5.69481794
5.84897185
6.18174526
6.73584399
7.58562653
8.85226241
10.7546112
13.5665675
16.3400212
14.0490603
)
;

boundaryField
{
    top
    {
        type            calculated;
        value           nonuniform List<scalar> 
20
(
25.0773522
24.5041777
18.0786564
13.0645384
10.1381821
8.37152096
7.25490544
6.55351567
6.13964523
5.94480837
5.93952775
6.12329354
6.5245481
7.210859
8.30975455
10.0572368
12.9659605
17.9769843
24.432587
25.0365743
)
;
    }
    left
    {
        type            calculated;
        value           nonuniform List<scalar> 
20
(
0.0121573307
3.805158e-05
0.0497006512
0.142373409
0.275552305
0.447202567
0.657559638
0.909284789
1.20742732
1.5596783
1.9773233
2.47743896
3.08715799
3.85040088
4.83424892
6.12913698
7.82781037
9.65643166
8.24832107
10.9271634
)
;
    }
    right
    {
        type            calculated;
        value           nonuniform List<scalar> 
20
(
0.0122547383
0.00030701901
0.0490993064
0.141332329
0.27403418
0.445294967
0.655561936
0.907810788
1.20751612
1.56290528
1.98589704
2.4942609
3.11580063
3.89488023
4.89826307
6.21431611
7.9302867
9.75742353
8.31297204
10.8938709
)
;
    }
    bottom
    {
        type            calculated;
        value           nonuniform List<scalar> 
20
(
0.0118794417
0.00164921191
0.053541939
0.143033197
0.256814206
0.379115209
0.495324146
0.593284944
0.663783353
0.700664633
0.700827725
0.664213218
0.593825406
0.495781336
0.379333858
0.256742899
0.142749563
0.0532152007
0.00143208338
0.0119708528
)
;
    }
    back0
    {
        type            empty;
    }
    front1
    {
        type            empty;
    }
}


// ************************************************************************* //
