/*--------------------------------*- C++ -*----------------------------------*\
| =========                 |                                                 |
| \\      /  F ield         | OpenFOAM: The Open Source CFD Toolbox           |
|  \\    /   O peration     | Version:  3.0.0                                 |
|   \\  /    A nd           | Web:      www.OpenFOAM.org                      |
|    \\/     M anipulation  |                                                 |
\*---------------------------------------------------------------------------*/
FoamFile
{
    version     2.0;
    format      ascii;
    class       volScalarField;
    location    "9";
    object      p;
}
// * * * * * * * * * * * * * * * * * * * * * * * * * * * * * * * * * * * * * //

dimensions      [0 2 -2 0 0 0 0];

internalField   nonuniform List<scalar> 
400
(
5.15524e-06
-0.058193
-0.130484
-0.186325
-0.207286
-0.185041
-0.118963
-0.0139615
0.121279
0.275643
0.43663
0.591262
0.726938
0.832381
0.89874
0.921007
0.899823
0.843653
0.771138
0.71295
0.0576519
-0.00213136
-0.0588282
-0.0973557
-0.108552
-0.0865654
-0.0306512
0.0556402
0.165718
0.290932
0.42141
0.546851
0.657302
0.743974
0.800137
0.822155
0.810778
0.771967
0.715075
0.655332
0.134124
0.0513187
-0.0100521
-0.0456447
-0.0547805
-0.0342171
0.0159817
0.0923626
0.189133
0.298866
0.41313
0.523121
0.620315
0.697139
0.747644
0.768271
0.758951
0.723031
0.661409
0.578633
0.204796
0.0902292
0.0138759
-0.0267408
-0.0378683
-0.0185699
0.0298811
0.103387
0.196098
0.300936
0.410034
0.515219
0.608512
0.682649
0.731572
0.751033
0.739726
0.698695
0.621959
0.507333
0.253493
0.10526
0.0109297
-0.0368544
-0.0502631
-0.0304132
0.0200771
0.0961264
0.191392
0.298684
0.410235
0.518025
0.614142
0.691147
0.742418
0.762645
0.749125
0.700839
0.605928
0.457435
0.268628
0.0859272
-0.0271938
-0.0819248
-0.095861
-0.0720877
-0.0147149
0.0699189
0.174656
0.291859
0.413522
0.531449
0.637448
0.72355
0.782211
0.806755
0.792896
0.737615
0.623652
0.440329
0.240177
0.0218293
-0.109806
-0.16947
-0.180323
-0.147608
-0.0771909
0.0230456
0.144863
0.279943
0.419838
0.555968
0.679644
0.782115
0.854612
0.888757
0.878374
0.818211
0.685421
0.465881
0.157365
-0.0984799
-0.247351
-0.308
-0.310052
-0.261473
-0.170318
-0.0463465
0.100918
0.262371
0.429072
0.592029
0.741995
0.869306
0.963724
1.01478
1.01392
0.95301
0.802654
0.544792
0.00680599
-0.289054
-0.452578
-0.507822
-0.492725
-0.418995
-0.297537
-0.140356
0.0416119
0.238529
0.441117
0.64015
0.82597
0.988029
1.11446
1.19226
1.20974
1.15481
0.989525
0.690545
-0.229325
-0.568132
-0.74151
-0.781396
-0.737174
-0.625927
-0.46229
-0.260898
-0.0340691
0.207908
0.455836
0.700721
0.932911
1.14124
1.31221
1.42983
1.47831
1.43984
1.26461
0.921322
-0.575743
-0.960204
-1.13456
-1.14349
-1.05292
-0.887686
-0.667196
-0.408977
-0.126426
0.170351
0.473033
0.773694
1.06348
1.33127
1.56219
1.73699
1.8346
1.82894
1.65306
1.26259
-1.06819
-1.49911
-1.65785
-1.61108
-1.44926
-1.20809
-0.91281
-0.583677
-0.234352
0.126404
0.492425
0.858184
1.21694
1.5588
1.86837
2.12327
2.29603
2.34902
2.18978
1.75139
-1.7613
-2.23297
-2.34475
-2.20257
-1.93336
-1.58731
-1.19578
-0.780752
-0.354405
0.0777437
0.513594
0.951925
1.39006
1.82131
2.23162
2.59652
2.88183
3.03455
2.92449
2.44447
-2.74491
-3.23207
-3.23657
-2.93507
-2.5066
-2.01829
-1.50609
-0.990695
-0.479655
0.0276689
0.535843
1.05045
1.57555
2.11066
2.64642
3.15944
3.61044
3.92849
3.92977
3.43485
-4.17749
-4.6004
-4.37988
-3.81688
-3.15678
-2.48071
-1.82284
-1.1962
-0.598358
-0.0184868
0.557823
1.14585
1.75962
2.40907
3.09504
3.80197
4.49207
5.07953
5.31259
4.88571
-6.34325
-6.48582
-5.81652
-4.83467
-3.84764
-2.93386
-2.11035
-1.37034
-0.693372
-0.0534275
0.577015
1.22567
1.91983
2.68494
3.54033
4.49078
5.51596
6.53202
7.22414
7.08733
-9.7519
-9.07985
-7.56455
-5.94266
-4.51409
-3.31587
-2.31973
-1.4791
-0.744431
-0.0692888
0.589445
1.27358
2.02615
2.89335
3.92416
5.16413
6.63915
8.30658
9.85895
10.5558
-15.5433
-12.6188
-9.51837
-6.98636
-5.01741
-3.52006
-2.37793
-1.47717
-0.72729
-0.0583435
0.587924
1.26605
2.0343
2.96263
4.14154
5.68495
7.70864
10.2996
13.4578
16.4393
-26.699
-17.2351
-10.9792
-7.32484
-4.90992
-3.26
-2.11103
-1.26489
-0.591709
-0.00636252
0.554941
1.14982
1.84212
2.71702
3.90464
5.60431
8.08265
11.8138
18.1588
27.7254
-45.35
-21.7257
-10.5196
-6.01121
-3.66546
-2.26807
-1.38776
-0.779813
-0.31109
0.0921217
0.479126
0.89276
1.38228
2.02121
2.94238
4.39196
6.80869
11.4143
22.7344
46.4739
)
;

boundaryField
{
    top
    {
        type            zeroGradient;
    }
    left
    {
        type            zeroGradient;
    }
    right
    {
        type            zeroGradient;
    }
    bottom
    {
        type            zeroGradient;
    }
    back0
    {
        type            empty;
    }
    front1
    {
        type            empty;
    }
}


// ************************************************************************* //
