/*--------------------------------*- C++ -*----------------------------------*\
| =========                 |                                                 |
| \\      /  F ield         | OpenFOAM: The Open Source CFD Toolbox           |
|  \\    /   O peration     | Version:  3.0.1                                 |
|   \\  /    A nd           | Web:      www.OpenFOAM.org                      |
|    \\/     M anipulation  |                                                 |
\*---------------------------------------------------------------------------*/
FoamFile
{
    version     2.0;
    format      ascii;
    class       volScalarField;
    location    "9";
    object      p;
}
// * * * * * * * * * * * * * * * * * * * * * * * * * * * * * * * * * * * * * //

dimensions      [0 2 -2 0 0 0 0];

internalField   nonuniform List<scalar> 
400
(
5.15523968e-06
-0.0581929729
-0.13048399
-0.186324928
-0.20728569
-0.18504092
-0.11896256
-0.0139614791
0.121279206
0.27564279
0.43663045
0.591261727
0.726938409
0.83238077
0.898740456
0.92100694
0.899823255
0.843652797
0.771137523
0.712949918
0.0576518812
-0.00213135822
-0.0588281746
-0.0973556699
-0.108552024
-0.0865654063
-0.0306512207
0.0556401665
0.165718244
0.290931745
0.42140997
0.546851232
0.65730186
0.743973973
0.800137347
0.822154868
0.810777665
0.771966863
0.715075059
0.655332432
0.1341241
0.0513187122
-0.0100520688
-0.0456447347
-0.0547805181
-0.0342170791
0.0159817492
0.0923625939
0.189132748
0.29886648
0.413130126
0.523120687
0.620315264
0.697139368
0.747644005
0.768271451
0.758950782
0.723031112
0.661408828
0.57863332
0.204796339
0.0902291636
0.0138758791
-0.0267407839
-0.0378682551
-0.0185699083
0.0298810774
0.103387483
0.196097799
0.300935694
0.410034477
0.515219367
0.608512445
0.682648846
0.731571659
0.751033406
0.739725772
0.698694991
0.621958637
0.507332771
0.253492655
0.105260382
0.0109296722
-0.0368544438
-0.0502630526
-0.0304132147
0.0200771414
0.0961264292
0.191391894
0.298684147
0.410234705
0.518024646
0.614141514
0.691147316
0.742417572
0.762645102
0.749124571
0.700839143
0.605927654
0.457434515
0.268628338
0.0859272004
-0.027193761
-0.0819248453
-0.0958609785
-0.0720876573
-0.0147148943
0.0699188806
0.174655917
0.291858529
0.413522477
0.531449343
0.637447729
0.723550453
0.782211359
0.806754616
0.792895874
0.737615424
0.623652347
0.440329333
0.240176669
0.0218292504
-0.109806126
-0.169470489
-0.180322938
-0.147608042
-0.0771909029
0.0230455729
0.144862916
0.279942977
0.419838026
0.555968102
0.679644272
0.782115247
0.854612009
0.888756513
0.878374461
0.818211247
0.685420954
0.465881282
0.157364969
-0.0984798826
-0.247351453
-0.307999765
-0.310052359
-0.261472617
-0.170318374
-0.0463465371
0.100918359
0.26237105
0.429072257
0.592028802
0.741995431
0.869306243
0.963723914
1.01478239
1.01391546
0.953010279
0.802654174
0.544792269
0.00680598897
-0.28905413
-0.452577584
-0.507822499
-0.492725108
-0.41899495
-0.297536643
-0.140356308
0.0416118716
0.238529142
0.441116868
0.640150025
0.825970411
0.988029333
1.11445626
1.19225718
1.20973769
1.15480728
0.989525462
0.690544908
-0.229324847
-0.568132151
-0.741510015
-0.781395752
-0.737174341
-0.625927353
-0.462290384
-0.260897734
-0.0340691303
0.207907714
0.455835892
0.700721318
0.932910582
1.14124352
1.31220611
1.42983133
1.47831464
1.4398367
1.26461275
0.921322347
-0.575742642
-0.960203757
-1.13455594
-1.14348773
-1.05292463
-0.887686034
-0.667196245
-0.408976654
-0.126426461
0.170351408
0.473032589
0.773693614
1.06348411
1.33127203
1.56219283
1.73699499
1.83460298
1.82894486
1.65305741
1.26258934
-1.06818736
-1.49911339
-1.6578547
-1.61107905
-1.44925666
-1.20809413
-0.912809656
-0.583677403
-0.234352223
0.126403763
0.492424546
0.858183703
1.21694398
1.55879526
1.86837477
2.12326679
2.2960329
2.34902021
2.18977633
1.75139423
-1.76129687
-2.23297098
-2.34474804
-2.20256891
-1.93336264
-1.58730755
-1.19578229
-0.780752324
-0.354405126
0.0777437334
0.513594489
0.951925037
1.39006391
1.82130916
2.2316151
2.59652253
2.88183045
3.03455026
2.92449203
2.44446753
-2.74490859
-3.23207028
-3.23656521
-2.93507111
-2.50659886
-2.01829025
-1.50608628
-0.99069509
-0.479655036
0.0276688618
0.535843285
1.05045049
1.57554647
2.110663
2.64642259
3.15944347
3.61043872
3.92848608
3.92977379
3.43484916
-4.17749036
-4.60039886
-4.3798791
-3.8168773
-3.15678449
-2.48070971
-1.8228375
-1.19619829
-0.598358056
-0.0184867721
0.557823024
1.14585138
1.75961713
2.40906543
3.09503929
3.80196797
4.49206988
5.0795257
5.31259319
4.88570676
-6.34325269
-6.48581974
-5.81652138
-4.83467256
-3.84764357
-2.93386431
-2.11034852
-1.37033919
-0.693371652
-0.0534274791
0.577015071
1.22567124
1.91982954
2.68493518
3.54032914
4.49078368
5.51595686
6.53202108
7.22413771
7.08732581
-9.75189652
-9.07984522
-7.56454641
-5.94266098
-4.51408989
-3.31586724
-2.31973297
-1.47909745
-0.744430757
-0.0692887549
0.589444979
1.27358307
2.02615423
2.89335185
3.9241618
5.16413431
6.63915196
8.30658177
9.85894889
10.5557615
-15.5433449
-12.6187679
-9.51837264
-6.98636095
-5.01741049
-3.52006092
-2.37792761
-1.47716994
-0.727290193
-0.0583435159
0.587923504
1.26604721
2.03429938
2.9626318
4.14153505
5.68495277
7.70863883
10.2996024
13.4578216
16.4393134
-26.6989513
-17.2351175
-10.9792157
-7.32484377
-4.90992488
-3.25999658
-2.11102789
-1.26489407
-0.591709266
-0.00636252406
0.554941183
1.1498213
1.84211552
2.71701658
3.90463795
5.60430755
8.08265059
11.8138173
18.1587767
27.7253677
-45.3500477
-21.7256944
-10.519634
-6.01121336
-3.66546276
-2.26807393
-1.38776235
-0.779813397
-0.311090284
0.0921217002
0.479125994
0.89275987
1.38227921
2.02121074
2.94238162
4.39196129
6.80869388
11.4142563
22.7343529
46.4738925
)
;

boundaryField
{
    top
    {
        type            zeroGradient;
    }
    left
    {
        type            zeroGradient;
    }
    right
    {
        type            zeroGradient;
    }
    bottom
    {
        type            zeroGradient;
    }
    back0
    {
        type            empty;
    }
    front1
    {
        type            empty;
    }
}


// ************************************************************************* //
