/*--------------------------------*- C++ -*----------------------------------*\
| =========                 |                                                 |
| \\      /  F ield         | OpenFOAM: The Open Source CFD Toolbox           |
|  \\    /   O peration     | Version:  3.0.1                                 |
|   \\  /    A nd           | Web:      www.OpenFOAM.org                      |
|    \\/     M anipulation  |                                                 |
\*---------------------------------------------------------------------------*/
FoamFile
{
    version     2.0;
    format      ascii;
    class       surfaceScalarField;
    location    "9";
    object      phi;
}
// * * * * * * * * * * * * * * * * * * * * * * * * * * * * * * * * * * * * * //

dimensions      [0 3 -1 0 0 0 0];

internalField   nonuniform List<scalar> 
760
(
1.48346121e-05
-1.48391213e-05
-2.06664474e-05
3.55010355e-05
-0.000112520597
9.18540797e-05
-0.000244614145
0.000132093507
-0.000396819983
0.000152205901
-0.000549709481
0.000152889669
-0.000686466922
0.000136757629
-0.000793771678
0.000107304824
-0.000862076753
6.8304949e-05
-0.000885638019
2.35610009e-05
-0.000862489349
-2.31489104e-05
-0.000794446671
-6.80427234e-05
-0.000687159448
-0.000107287019
-0.000550173468
-0.000136985632
-0.000396907605
-0.000153265573
-0.000244342162
-0.000152565386
-0.000112068471
-0.000132273896
-2.02874365e-05
-9.17813769e-05
1.49801778e-05
-3.52679151e-05
1.49800716e-05
-3.27943868e-05
1.7955293e-05
-0.000177271018
0.000179977758
-0.000430660912
0.000345243986
-0.000762837522
0.000464270022
-0.00113361747
0.000522985701
-0.00150161744
0.000520889547
-0.00182937253
0.000464512798
-0.00208620186
0.00036413438
-0.00224961315
0.000231716487
-0.00230590169
7.98496467e-05
-0.00225037839
-7.86723237e-05
-0.00208745818
-0.000230963201
-0.00183067151
-0.000364073942
-0.00150250455
-0.000465152659
-0.00113381157
-0.000521958393
-0.000762352222
-0.000524024428
-0.000429806092
-0.00046481971
-0.00017650474
-0.000345082527
-3.24526756e-05
-0.00017931993
-1.74728785e-05
-9.02045228e-05
0.000108159784
-0.000352894072
0.000442667438
-0.000760600188
0.000752950222
-0.00126723888
0.000970908722
-0.0018176179
0.00107336458
-0.00235581861
0.00105909006
-0.00283112912
0.000939823188
-0.00320177442
0.000734779763
-0.00343696477
0.000466907111
-0.00351787638
0.000160761563
-0.00343806447
-0.000158484088
-0.00320361217
-0.000465415629
-0.00283310474
-0.000734581682
-0.00235730393
-0.000940953779
-0.00181818896
-0.00106107348
-0.00126684699
-0.00107536625
-0.000759602313
-0.00097206404
-0.000351894385
-0.000752790112
-8.97159332e-05
-0.000441498209
-0.000107189097
-0.000142725155
0.000250884834
-0.000521155236
0.000821097602
-0.00107877669
0.00131057185
-0.00174926968
0.00164140188
-0.00246204157
0.00178613648
-0.00314895751
0.0017460058
-0.00374966705
0.00154053247
-0.00421508511
0.00120019767
-0.00450930176
0.000761123865
-0.00461045066
0.000261910776
-0.00451103962
-0.000257894774
-0.00421807524
-0.000758379844
-0.00375308455
-0.00119957251
-0.00315189482
-0.00154214385
-0.00246380718
-0.00174916145
-0.0017496353
-0.00178953824
-0.00107807163
-0.00164362753
-0.000520126937
-0.00131073447
-0.000142136697
-0.000819488175
-0.000249325942
-0.000191108151
0.000441992868
-0.000682218853
0.00131220826
-0.00138731971
0.00201567282
-0.00221710292
0.00247118531
-0.00308417075
0.00265320452
-0.00390865198
0.00257048705
-0.00462240385
0.00225428412
-0.00517146428
0.00174925778
-0.00551708672
0.00110674611
-0.00563594001
0.000380764162
-0.00552002223
-0.000373812211
-0.00517665192
-0.00110174976
-0.00462865259
-0.00174757165
-0.00391458176
-0.00225621481
-0.0030886063
-0.00257513725
-0.00221943936
-0.00265870551
-0.00138772988
-0.00247533712
-0.000681573881
-0.00201689032
-0.000190525724
-0.00131053606
-0.000439851589
-0.000238304794
0.000680297637
-0.000842095419
0.00191599873
-0.00169513998
0.00286871731
-0.00268291737
0.00345896285
-0.0036998411
0.00367012854
-0.00465445379
0.00352509999
-0.00547225677
0.00307208712
-0.00609649778
0.00237349853
-0.00648763911
0.00149788706
-0.00662232789
0.000515452703
-0.00649254241
-0.00050359761
-0.00610533285
-0.00148895895
-0.00548329019
-0.00236961388
-0.00466558427
-0.00307392051
-0.0037091175
-0.00353160413
-0.00268907205
-0.00367875129
-0.00169797553
-0.00346643396
-0.000842533789
-0.00287233217
-0.000237931539
-0.00191513816
-0.000677782875
-0.000287377815
0.000967675578
-0.00100782295
0.00263644369
-0.00201201727
0.00387291141
-0.00315754806
0.00460449356
-0.00431950056
0.00483208122
-0.005395496
0.00460109578
-0.00630668123
0.00398327264
-0.00699609424
0.00306291158
-0.00742581807
0.0019276106
-0.00757414371
0.000663777923
-0.00743359664
-0.000644144951
-0.00701030774
-0.00191224778
-0.00632488084
-0.00305504041
-0.00541459485
-0.00398420607
-0.00433643065
-0.00460976812
-0.00317000724
-0.0048451748
-0.00201911823
-0.00461732329
-0.00101037808
-0.00388107261
-0.000287535785
-0.00263798051
-0.000965318389
-0.000341212233
0.00130888804
-0.00118606884
0.00348130025
-0.0023461749
0.00503301724
-0.0036474986
0.00590581699
-0.0049451046
0.00612968714
-0.00612756519
0.00578355659
-0.0071150548
0.00497076265
-0.00785418286
0.00380203998
-0.00831193724
0.00238536501
-0.00847043702
0.000822277399
-0.00832350484
-0.000791077566
-0.00787555495
-0.00236019795
-0.0071429503
-0.003787645
-0.0061576934
-0.0049694626
-0.00497294287
-0.00579451823
-0.00366927784
-0.00614883964
-0.00235988177
-0.00592671947
-0.00119212034
-0.00504883433
-0.000342356176
-0.00348774488
-0.00130767444
-0.000402662252
0.00171155049
-0.00138288322
0.00446152136
-0.00270314639
0.00635328035
-0.00415277703
0.00735544735
-0.00556708755
0.00754399735
-0.00682952873
0.00704599767
-0.00786487594
0.00600611009
-0.00862888977
0.00456605425
-0.00909798384
0.00285445945
-0.00926099454
0.000985288142
-0.0091140426
-0.000938029806
-0.00865885395
-0.00281538704
-0.00790464532
-0.00454185391
-0.00687353029
-0.00600057757
-0.00560910026
-0.00705894792
-0.00418713241
-0.00757080711
-0.00272616135
-0.00738769037
-0.00139412409
-0.00638087168
-0.000405385306
-0.00447648388
-0.00171305981
-0.000475110727
0.00218666124
-0.00160423007
0.00559064097
-0.00308522716
0.0078342776
-0.00466468967
0.00893490979
-0.00616057351
0.00903988087
-0.00745844194
0.00834386576
-0.008496321
0.00704398904
-0.00924694438
0.00531667787
-0.00970204022
0.00330955575
-0.00986075382
0.00114400212
-0.00972275463
-0.00107602894
-0.009285983
-0.00325215897
-0.00854900049
-0.00527883685
-0.00751809705
-0.00703148128
-0.00621927713
-0.00835776778
-0.00471455777
-0.00907552616
-0.00312030232
-0.0089819455
-0.0016225596
-0.00787861427
-0.000480136618
-0.00561890695
-0.00219319663
-0.000563484004
0.00275014506
-0.00185696112
0.00688411831
-0.00349063215
0.00946794894
-0.00516238862
0.0106066665
-0.00667966479
0.0105571569
-0.00794251186
0.00960671247
-0.00891480751
0.00801628432
-0.00959641001
0.00599828025
-0.0100013149
0.00371446092
-0.0101429407
0.00128562832
-0.0100258832
-0.00119308604
-0.00964324018
-0.00363480194
-0.0089791858
-0.0059428915
-0.00801728999
-0.00799337749
-0.00675563274
-0.00961942528
-0.00522944116
-0.0106017177
-0.00353999242
-0.010671394
-0.00188425637
-0.00953435004
-0.000571636143
-0.00693152708
-0.00276483296
-0.000675948615
0.00342609339
-0.00214982766
0.00835799738
-0.00391097501
0.0112290966
-0.00560625102
0.0123019428
-0.00704802686
0.011998933
-0.0081707605
0.010729446
-0.00898119886
0.0088267223
-0.00951808198
0.00653516298
-0.00982460488
0.00402098369
-0.0099319373
0.00139296098
-0.00985079014
-0.00127423276
-0.00956873096
-0.00391686075
-0.00905248774
-0.00645913465
-0.00825621148
-0.00878965398
-0.00713822167
-0.0107374154
-0.0056894544
-0.0120504852
-0.00397535313
-0.0123854952
-0.00218751961
-0.0113221833
-0.000688081004
-0.00843096549
-0.00345291402
-0.000826648628
0.00425274182
-0.00249342119
0.0100247698
-0.00432418451
0.0130598599
-0.00592459567
0.0139023543
-0.0071429133
0.013217251
-0.00797782127
0.0115643542
-0.00849943306
0.00934833399
-0.00879640136
0.0068321309
-0.00894570111
0.00417028305
-0.00899764707
0.00144490681
-0.00896948453
-0.00130239509
-0.00884345454
-0.00404289033
-0.00856804061
-0.00673454824
-0.00806387588
-0.00929381865
-0.00723867585
-0.0115626157
-0.00601823945
-0.0132709218
-0.00440132846
-0.0140024063
-0.00254175603
-0.0131817557
-0.000843508738
-0.0101292126
-0.00429642267
-0.00103952313
0.00529226498
-0.00289549019
0.0118807366
-0.00467633811
0.0148407076
-0.00598720148
0.0152132177
-0.00676819872
0.0139982485
-0.00712209988
0.0119182557
-0.00720203259
0.00942826692
-0.0071518158
0.00678191402
-0.00708046874
0.00409893563
-0.00705437526
0.00141881296
-0.00709612712
-0.00126064337
-0.0071843949
-0.00395462237
-0.00725315065
-0.00666579214
-0.00719198958
-0.00935497941
-0.00685341896
-0.0119011862
-0.00607860048
-0.0140457405
-0.0047588905
-0.0153221165
-0.00295227301
-0.0149883733
-0.00106146527
-0.0120200203
-0.00535788779
-0.00135025142
0.00664251665
-0.00334025597
0.013870741
-0.0048376811
0.0163381325
-0.00555404846
0.0159295848
-0.00561056937
0.0140547695
-0.00525650324
0.0115641899
-0.00473591652
0.0089076806
-0.00423859784
0.00628459557
-0.00389222383
0.00375256155
-0.00376902854
0.00129561735
-0.00389327291
-0.00113639934
-0.0042439324
-0.003603963
-0.00475113528
-0.00615858912
-0.0052876898
-0.00881842458
-0.00566131377
-0.011527562
-0.0056217283
-0.0140853259
-0.0049105665
-0.0160332785
-0.00339873249
-0.0165002075
-0.00137654986
-0.014042203
-0.00673443754
-0.00179037802
0.00843289497
-0.00371836122
0.0157987242
-0.00450183535
0.0171216064
-0.00418179663
0.0156095458
-0.00317451672
0.0130474893
-0.0018954672
0.0102851404
-0.000655569805
0.00766778348
0.000344295442
0.00528473069
0.000987448303
0.00310940892
0.00121450044
0.00106856516
0.00100600299
-0.000927902149
0.00037674072
-0.00297470103
-0.000618094197
-0.00516375432
-0.0018647434
-0.00757177527
-0.00316256873
-0.0102297364
-0.00419629297
-0.0130516015
-0.00454020583
-0.0156893656
-0.00376394183
-0.0172764716
-0.00181751162
-0.0159886333
-0.00855194915
-0.00230764275
0.0107405379
-0.00363211759
0.0171231993
-0.00297442379
0.0164639127
-0.00106889369
0.0137040155
0.00129962223
0.0106789731
0.00360817653
0.00797658587
0.00556237783
0.00571358217
0.00701811539
0.00382899337
0.00791404676
0.00221347788
0.00822761957
0.00075499258
0.00795212845
-0.000652411049
0.00708964863
-0.00211222142
0.00565786596
-0.00373197189
0.00371317386
-0.00562708329
0.00139571615
-0.00791227864
-0.00100056605
-0.0106553191
-0.00294595421
-0.0137439773
-0.00363940836
-0.0165830174
-0.00232572288
-0.0173023189
-0.0108776721
-0.0025142832
0.013254821
-0.00191886164
0.016527778
0.00123204966
0.0133130016
0.00516960718
0.00976645809
0.00890995227
0.00693862786
0.0120477007
0.00483883712
0.0144621918
0.00329909092
0.0161533071
0.00213787803
0.0171566123
0.00121017291
0.0175035784
0.000408026774
0.0172053082
-0.00035414064
0.016248011
-0.00115492425
0.0145966908
-0.00208065188
0.0122107379
-0.00324113058
0.00908363894
-0.00478517975
0.00532950018
-0.00690118027
0.00135184669
-0.00976632363
-0.00185633288
-0.0133748377
-0.00250263356
-0.0166560182
-0.0133803057
-0.000525870722
0.0137806915
0.00469116531
0.011310742
0.0111379057
0.00686626142
0.0167191969
0.00418516715
0.0210437615
0.00261406341
0.0242217884
0.00166081007
0.0264601189
0.00106076022
0.0279395591
0.000658437625
0.0287868701
0.000362861857
0.0290749922
0.000119904826
0.0288276843
-0.000106832487
0.0280213582
-0.000348598052
0.0265824981
-0.000641791748
0.0243820565
-0.00104068911
0.0212339725
-0.00163709588
0.0169223244
-0.00258953219
0.011326164
-0.00417016322
0.00483124082
-0.00687991443
-0.000460418918
-0.0113643583
-0.0138407246
0.0137806913
0.0250914332
0.0319576945
0.0361428618
0.0387569255
0.0404177358
0.041478496
0.0421369335
0.0424997952
0.0426196998
0.0425128673
0.0421642694
0.0415224778
0.0404817888
0.0388446929
0.0362551607
0.0320849974
0.0252050829
0.0138407246
)
;

boundaryField
{
    top
    {
        type            calculated;
        value           uniform 0;
    }
    left
    {
        type            calculated;
        value           uniform 0;
    }
    right
    {
        type            calculated;
        value           uniform 0;
    }
    bottom
    {
        type            calculated;
        value           uniform 0;
    }
    back0
    {
        type            empty;
        value           nonuniform 0();
    }
    front1
    {
        type            empty;
        value           nonuniform 0();
    }
}


// ************************************************************************* //
