/*--------------------------------*- C++ -*----------------------------------*\
| =========                 |                                                 |
| \\      /  F ield         | OpenFOAM: The Open Source CFD Toolbox           |
|  \\    /   O peration     | Version:  3.0.1                                 |
|   \\  /    A nd           | Web:      www.OpenFOAM.org                      |
|    \\/     M anipulation  |                                                 |
\*---------------------------------------------------------------------------*/
FoamFile
{
    version     2.0;
    format      ascii;
    class       volVectorField;
    location    "9";
    object      U;
}
// * * * * * * * * * * * * * * * * * * * * * * * * * * * * * * * * * * * * * //

dimensions      [0 1 -1 0 0 0 0];

internalField   nonuniform List<vector> 
400
(
(0.00025909876 -0.000255065565 0)
(0.000163269341 0.000103516432 0)
(-0.00114125692 0.00056293299 0)
(-0.00345162326 0.000892682655 0)
(-0.00637456049 0.00105975968 0)
(-0.00950137917 0.0010758613 0)
(-0.0124624472 0.000965763898 0)
(-0.0149528176 0.000758487108 0)
(-0.0167424708 0.000482987861 0)
(-0.0176781107 0.000166939205 0)
(-0.0176825136 -0.000162991629 0)
(-0.016754075 -0.000480342707 0)
(-0.0149673983 -0.000757969834 0)
(-0.0124747415 -0.000967395298 0)
(-0.00950714601 -0.00107880228 0)
(-0.00637237331 -0.00106259349 0)
(-0.00344362093 -0.000894005653 0)
(-0.00113223092 -0.000562120916 0)
(0.000168793439 -0.000101409265 0)
(0.000260558343 0.000256261178 0)
(-6.36279472e-05 -0.000192740065 0)
(-0.00156374042 0.00161127806 0)
(-0.00562129018 0.00360997558 0)
(-0.0116623957 0.00506518798 0)
(-0.0188876763 0.00579893585 0)
(-0.0264616764 0.00581606578 0)
(-0.0335808319 0.0052026511 0)
(-0.0395528801 0.00408408518 0)
(-0.0438411261 0.00260080229 0)
(-0.0460817106 0.000897206143 0)
(-0.0460899741 -0.00088178278 0)
(-0.0438629536 -0.00259069696 0)
(-0.0395804516 -0.00408265825 0)
(-0.0336043465 -0.00520997074 0)
(-0.0264731043 -0.00582870019 0)
(-0.0188840532 -0.00581112116 0)
(-0.0116472899 -0.00507122316 0)
(-0.00560339501 -0.00360723347 0)
(-0.00155190306 -0.00160273545 0)
(-6.01292272e-05 0.000198534849 0)
(-0.000508056342 0.00103304144 0)
(-0.00364514724 0.0056623345 0)
(-0.0104977593 0.0102120859 0)
(-0.0199304904 0.0134777946 0)
(-0.0307793286 0.0150698566 0)
(-0.0419249882 0.0149606139 0)
(-0.0522861731 0.0133219669 0)
(-0.0609227883 0.0104364132 0)
(-0.0671017789 0.00663926841 0)
(-0.0703241028 0.00228747692 0)
(-0.0703359348 -0.00225413497 0)
(-0.0671333769 -0.00661752035 0)
(-0.0609637701 -0.0104336451 0)
(-0.0523232391 -0.013338471 0)
(-0.0419466828 -0.0149890915 0)
(-0.0307804325 -0.0150978434 0)
(-0.0199143785 -0.0134927128 0)
(-0.0104753164 -0.0102076261 0)
(-0.00362888901 -0.00564388811 0)
(-0.000502879152 -0.0010187975 0)
(-0.000901527309 0.00337415423 0)
(-0.00561471187 0.0121027236 0)
(-0.0152160154 0.0199185851 0)
(-0.0278960078 0.0253348715 0)
(-0.0420806333 0.0278175287 0)
(-0.0563930722 0.0273454264 0)
(-0.0695396206 0.0242145262 0)
(-0.0804104901 0.0189084596 0)
(-0.0881486882 0.0120071535 0)
(-0.0921742166 0.00413333169 0)
(-0.0921927183 -0.00407342811 0)
(-0.0881990052 -0.011967092 0)
(-0.0804785997 -0.0189011779 0)
(-0.0696069271 -0.0242412165 0)
(-0.0564423195 -0.0273944605 0)
(-0.042101791 -0.027868087 0)
(-0.0278901601 -0.0253649868 0)
(-0.0151953171 -0.0199157321 0)
(-0.0055961113 -0.0120735484 0)
(-0.000894869869 -0.00334871057 0)
(-0.00124878033 0.00671914601 0)
(-0.00746753362 0.0208067047 0)
(-0.0197752569 0.0325561798 0)
(-0.0356414689 0.0403583217 0)
(-0.0530356663 0.0436522802 0)
(-0.0703148018 0.0425094345 0)
(-0.0859995179 0.0374148028 0)
(-0.0988569945 0.0291035759 0)
(-0.107956644 0.0184400458 0)
(-0.112678273 0.0063446827 0)
(-0.11270921 -0.00624106081 0)
(-0.108042227 -0.018367557 0)
(-0.0989773631 -0.0290832558 0)
(-0.0861273378 -0.0374502607 0)
(-0.0704227628 -0.0425846825 0)
(-0.0531045809 -0.0437362424 0)
(-0.0356666384 -0.0404160422 0)
(-0.0197684308 -0.0325645926 0)
(-0.00745105643 -0.0207705736 0)
(-0.00124126981 -0.00668126483 0)
(-0.00158017378 0.0110106952 0)
(-0.0092926331 0.0317466231 0)
(-0.0243212534 0.0481289285 0)
(-0.0433743886 0.0585360801 0)
(-0.0639230224 0.0625112804 0)
(-0.0840449345 0.0603351395 0)
(-0.102093602 0.0527734109 0)
(-0.116751933 0.0408774804 0)
(-0.127060243 0.0258362171 0)
(-0.132395295 0.00888910816 0)
(-0.132446581 -0.00871105389 0)
(-0.12720392 -0.0257053998 0)
(-0.1169596 -0.0408271929 0)
(-0.102324845 -0.0528124378 0)
(-0.0842568023 -0.0604436761 0)
(-0.0640811205 -0.0626456934 0)
(-0.0434628887 -0.0586432835 0)
(-0.0243482629 -0.0481684387 0)
(-0.00928636395 -0.0317151653 0)
(-0.0015732285 -0.0109621121 0)
(-0.00192625622 0.0162550683 0)
(-0.0111928988 0.0449648619 0)
(-0.029027901 0.0666850371 0)
(-0.0513080616 0.0798756101 0)
(-0.0749610828 0.0843338821 0)
(-0.0977822833 0.0806969737 0)
(-0.117988289 0.0701286204 0)
(-0.13422747 0.0540740422 0)
(-0.145564312 0.0340861059 0)
(-0.151415613 0.0117325403 0)
(-0.151496511 -0.0114321684 0)
(-0.145793049 -0.0338557573 0)
(-0.134564566 -0.0539652642 0)
(-0.118375862 -0.0701597861 0)
(-0.0981555695 -0.0808461416 0)
(-0.0752630674 -0.0845426802 0)
(-0.0515043814 -0.0800662932 0)
(-0.0291175768 -0.0667897436 0)
(-0.0112092941 -0.0449617363 0)
(-0.00192231807 -0.0162027071 0)
(-0.00231586435 0.0225188852 0)
(-0.0132686086 0.0605807182 0)
(-0.0340569753 0.0883110909 0)
(-0.0596048713 0.104368567 0)
(-0.0862453027 0.10899734 0)
(-0.111508521 0.103380067 0)
(-0.133533107 0.089223781 0)
(-0.151009557 0.0684555385 0)
(-0.16310085 0.0430258826 0)
(-0.169320769 0.0148224115 0)
(-0.169440504 -0.0143329526 0)
(-0.163441907 -0.0426373946 0)
(-0.15151988 -0.0682455343 0)
(-0.13413415 -0.0892266182 0)
(-0.112108174 -0.103575265 0)
(-0.0867560022 -0.109310717 0)
(-0.0599644068 -0.104690505 0)
(-0.0342470572 -0.0885331257 0)
(-0.0133249303 -0.0606460634 0)
(-0.00231859373 -0.0224774356 0)
(-0.00277919427 0.0299257518 0)
(-0.0156192265 0.0787852775 0)
(-0.0395457643 0.113109755 0)
(-0.0683430224 0.131941967 0)
(-0.0976948761 0.136245352 0)
(-0.124920474 0.127998148 0)
(-0.148185639 0.109628254 0)
(-0.166341061 0.0836380229 0)
(-0.178753038 0.0523950462 0)
(-0.185108324 0.0180718688 0)
(-0.185273801 -0.0173093004 0)
(-0.17922754 -0.0517729578 0)
(-0.16706069 -0.0832686487 0)
(-0.149050933 -0.109570379 0)
(-0.125809067 -0.128239195 0)
(-0.0984818543 -0.136696933 0)
(-0.0689278785 -0.132456232 0)
(-0.0398814794 -0.11352171 0)
(-0.0157375871 -0.0789798379 0)
(-0.00279365446 -0.0299204496 0)
(-0.00335558923 0.0386598324 0)
(-0.018358991 0.0998286299 0)
(-0.0456106425 0.141149 0)
(-0.0774898357 0.162368226 0)
(-0.108990995 0.16557407 0)
(-0.137340475 0.15387561 0)
(-0.16090574 0.130632503 0)
(-0.178870103 0.0990104336 0)
(-0.190943375 0.0617852179 0)
(-0.197080754 0.0213406276 0)
(-0.197293186 -0.0202106625 0)
(-0.191556666 -0.0608422174 0)
(-0.179812904 -0.0984096834 0)
(-0.162062654 -0.130467243 0)
(-0.138561436 -0.154151342 0)
(-0.110110873 -0.166194664 0)
(-0.0783600707 -0.16314486 0)
(-0.0461409156 -0.141843443 0)
(-0.0185657521 -0.100236642 0)
(-0.00338840706 -0.0387292549 0)
(-0.00410769469 0.048985299 0)
(-0.0216450045 0.124008524 0)
(-0.0523542025 0.17238547 0)
(-0.0868591249 0.195134292 0)
(-0.119481306 0.196079168 0)
(-0.147583887 0.179902915 0)
(-0.170007081 0.15113053 0)
(-0.186501476 0.113650958 0)
(-0.197291782 0.070590088 0)
(-0.202708789 0.02441606 0)
(-0.202959317 -0.0228287303 0)
(-0.198020697 -0.0692386215 0)
(-0.187639336 -0.112739122 0)
(-0.171435194 -0.15079626 0)
(-0.149136086 -0.180184109 0)
(-0.120957505 -0.196885873 0)
(-0.0880571996 -0.196241896 0)
(-0.0531240542 -0.173469175 0)
(-0.0219690685 -0.124737853 0)
(-0.00416716265 -0.0491838327 0)
(-0.00514672344 0.0612936589 0)
(-0.0257192238 0.151656875 0)
(-0.0598573352 0.206540867 0)
(-0.0960163543 0.229247359 0)
(-0.128010534 0.22625206 0)
(-0.153752932 0.204366558 0)
(-0.172950777 0.169499916 0)
(-0.186211836 0.126253704 0)
(-0.194456681 0.0779668414 0)
(-0.198488977 0.0269985798 0)
(-0.198753975 -0.0248921033 0)
(-0.195235523 -0.0761392903 0)
(-0.187451778 -0.124956374 0)
(-0.174551715 -0.168923189 0)
(-0.155556649 -0.204598297 0)
(-0.129800734 -0.227232058 0)
(-0.0975421272 -0.230734023 0)
(-0.0608943016 -0.208120366 0)
(-0.0261884389 -0.152833974 0)
(-0.00524278029 -0.061693102 0)
(-0.00667695522 0.0761991902 0)
(-0.0309618133 0.183102321 0)
(-0.0681131785 0.242881294 0)
(-0.104061123 0.262937314 0)
(-0.132609116 0.253713736 0)
(-0.152911308 0.224767307 0)
(-0.166064262 0.183506302 0)
(-0.17383689 0.135093401 0)
(-0.177984693 0.0828291938 0)
(-0.179830228 0.0286992506 0)
(-0.180068017 -0.0260728372 0)
(-0.178694668 -0.0805072203 0)
(-0.175001626 -0.133363403 0)
(-0.167632214 -0.182612029 0)
(-0.154769956 -0.224864 0)
(-0.134563332 -0.254804106 0)
(-0.105835096 -0.264801051 0)
(-0.0694045899 -0.245035401 0)
(-0.0315960006 -0.184858165 0)
(-0.00682084442 -0.0768885803 0)
(-0.00906576154 0.0947026372 0)
(-0.0379246423 0.218538327 0)
(-0.0767913867 0.279804174 0)
(-0.109143738 0.29320868 0)
(-0.129924731 0.274900174 0)
(-0.140578598 0.237679784 0)
(-0.144175975 0.190296534 0)
(-0.143858214 0.138083666 0)
(-0.142218387 0.0839087309 0)
(-0.141028904 0.0290636853 0)
(-0.141180995 -0.0260145418 0)
(-0.14268944 -0.0811589644 0)
(-0.14468343 -0.135932437 0)
(-0.145383987 -0.189029524 0)
(-0.142149465 -0.237529641 0)
(-0.131741764 -0.275969882 0)
(-0.110959041 -0.295359027 0)
(-0.0782481885 -0.282539179 0)
(-0.0387218177 -0.220978843 0)
(-0.00926852206 -0.0957839713 0)
(-0.0129064948 0.118408538 0)
(-0.0471896959 0.257615168 0)
(-0.084541281 0.314085573 0)
(-0.107433028 0.31523681 0)
(-0.114222051 0.284803048 0)
(-0.109987083 0.238796069 0)
(-0.100191608 0.186611105 0)
(-0.0892602653 0.133024634 0)
(-0.080351334 0.0799415577 0)
(-0.0754276626 0.0276432374 0)
(-0.0754289756 -0.0243954515 0)
(-0.0803895556 -0.0769480795 0)
(-0.0894298964 -0.130558963 0)
(-0.100620784 -0.184972277 0)
(-0.110789494 -0.238285715 0)
(-0.115426937 -0.285651539 0)
(-0.108905904 -0.317458341 0)
(-0.0859441541 -0.317272946 0)
(-0.0480970345 -0.260766775 0)
(-0.0131729822 -0.119982477 0)
(-0.0188565017 0.149839412 0)
(-0.0584939866 0.298411261 0)
(-0.0871238254 0.339552564 0)
(-0.0910298033 0.321660366 0)
(-0.0757519648 0.27698096 0)
(-0.0511223739 0.223384755 0)
(-0.0247385441 0.169390596 0)
(-0.0016121132 0.118146573 0)
(0.0152214356 0.0700342541 0)
(0.0241045327 0.0241323062 0)
(0.0243023035 -0.0210356826 0)
(0.0157673078 -0.0671084013 0)
(-0.000856607008 -0.115596926 0)
(-0.0239880052 -0.167483968 0)
(-0.0506315568 -0.222453469 0)
(-0.0757440632 -0.277375536 0)
(-0.0915838352 -0.323604382 0)
(-0.0880579871 -0.342864163 0)
(-0.0593476793 -0.302137066 0)
(-0.0191649207 -0.151974067 0)
(-0.0264625445 0.193171195 0)
(-0.0677000379 0.335014321 0)
(-0.0729896183 0.344651848 0)
(-0.0441147942 0.301756048 0)
(0.0015904315 0.244051747 0)
(0.0502178698 0.187354319 0)
(0.0938180426 0.136864141 0)
(0.128367535 0.092959534 0)
(0.152066823 0.0541905817 0)
(0.164225584 0.0185620093 0)
(0.164617883 -0.0160354742 0)
(0.15319834 -0.0517325286 0)
(0.130098915 -0.0906764459 0)
(0.0959095878 -0.134939062 0)
(0.0523327119 -0.18607979 0)
(0.00333419693 -0.243831941 0)
(-0.0430904935 -0.30301398 0)
(-0.0728279119 -0.347547205 0)
(-0.0681295084 -0.338913014 0)
(-0.0267083257 -0.195840586 0)
(-0.0289527587 0.251331316 0)
(-0.0581036134 0.350741899 0)
(-0.0140170742 0.309539066 0)
(0.0632657976 0.242400596 0)
(0.142946961 0.180310318 0)
(0.212723818 0.129919439 0)
(0.268472773 0.0905925653 0)
(0.309449322 0.0595774679 0)
(0.336245825 0.0340345987 0)
(0.349654594 0.0115487775 0)
(0.350147699 -0.00995156244 0)
(0.337700441 -0.0324236456 0)
(0.311782819 -0.0579641662 0)
(0.271519282 -0.0890461144 0)
(0.216198152 -0.128613175 0)
(0.146424034 -0.179576154 0)
(0.0662122525 -0.242735895 0)
(-0.0121382472 -0.311417368 0)
(-0.0574832336 -0.354042305 0)
(-0.028831247 -0.254177677 0)
(0.0132195538 0.289507496 0)
(0.0296816812 0.302854562 0)
(0.15417969 0.214068812 0)
(0.282833703 0.14234522 0)
(0.382969605 0.0939486632 0)
(0.457130862 0.0619624462 0)
(0.510502494 0.0405509432 0)
(0.547090514 0.0255474117 0)
(0.569959923 0.0142061179 0)
(0.581116173 0.00473812632 0)
(0.581523402 -0.00414301028 0)
(0.571184993 -0.0135724699 0)
(0.549136898 -0.0248412709 0)
(0.513349857 -0.0397538567 0)
(0.460686705 -0.0611006454 0)
(0.387005993 -0.0931595563 0)
(0.286924354 -0.141969626 0)
(0.15762611 -0.214616955 0)
(0.0318291845 -0.304532301 0)
(0.0142600292 -0.291324499 0)
(0.304245118 0.147454746 0)
(0.405563368 0.127829557 0)
(0.569531336 0.0747835021 0)
(0.686121673 0.041838577 0)
(0.753522533 0.0238429721 0)
(0.794598214 0.0139302358 0)
(0.82088769 0.00829802046 0)
(0.837586481 0.00488893134 0)
(0.84752229 0.00260052926 0)
(0.852223 0.000835247937 0)
(0.852350807 -0.000772307305 0)
(0.847917608 -0.00252075529 0)
(0.838285538 -0.00477209352 0)
(0.821949452 -0.00811771702 0)
(0.796091301 -0.0136558018 0)
(0.755502851 -0.0234583763 0)
(0.688596477 -0.0413908867 0)
(0.572194811 -0.0744403297 0)
(0.4075242 -0.12786856 0)
(0.305169545 -0.147795834 0)
)
;

boundaryField
{
    top
    {
        type            fixedValue;
        value           uniform (1 0 0);
    }
    left
    {
        type            fixedValue;
        value           uniform (0 0 0);
    }
    right
    {
        type            fixedValue;
        value           uniform (0 0 0);
    }
    bottom
    {
        type            fixedValue;
        value           uniform (0 0 0);
    }
    back0
    {
        type            empty;
    }
    front1
    {
        type            empty;
    }
}


// ************************************************************************* //
