/*--------------------------------*- C++ -*----------------------------------*\
| =========                 |                                                 |
| \\      /  F ield         | OpenFOAM: The Open Source CFD Toolbox           |
|  \\    /   O peration     | Version:  3.0.1                                 |
|   \\  /    A nd           | Web:      www.OpenFOAM.org                      |
|    \\/     M anipulation  |                                                 |
\*---------------------------------------------------------------------------*/
FoamFile
{
    version     2.0;
    format      ascii;
    class       volVectorField;
    location    "9";
    object      vorticity;
}
// * * * * * * * * * * * * * * * * * * * * * * * * * * * * * * * * * * * * * //

dimensions      [0 0 -1 0 0 0 0];

internalField   nonuniform List<vector> 
400
(
(0 -0 -0.00347019946)
(0 -0 0.0221846963)
(0 -0 0.0755171332)
(0 -0 0.156108456)
(0 -0 0.254454154)
(0 -0 0.358690598)
(0 -0 0.457259049)
(0 -0 0.540229217)
(0 -0 0.59992049)
(0 -0 0.631138418)
(0 -0 0.631252058)
(0 -0 0.600220504)
(0 -0 0.540607973)
(0 -0 0.457582556)
(0 -0 0.358850521)
(0 -0 0.254412231)
(0 -0 0.155913834)
(0 -0 0.0752822232)
(0 -0 0.0220149172)
(0 -0 -0.00355281029)
(0 -0 0.021856931)
(0 -0 0.0761113223)
(0 -0 0.128104123)
(0 -0 0.186678274)
(0 -0 0.251556459)
(0 -0 0.318273243)
(0 -0 0.380917453)
(0 -0 0.433681219)
(0 -0 0.471724291)
(0 -0 0.49163407)
(0 -0 0.491655181)
(0 -0 0.471784264)
(0 -0 0.43377098)
(0 -0 0.381024557)
(0 -0 0.318383864)
(0 -0 0.251655362)
(0 -0 0.186746453)
(0 -0 0.128115732)
(0 -0 0.0760345077)
(0 -0 0.021676381)
(0 -0 0.075332753)
(0 -0 0.132300159)
(0 -0 0.174101853)
(0 -0 0.210913828)
(0 -0 0.246757763)
(0 -0 0.281835061)
(0 -0 0.31434588)
(0 -0 0.341749115)
(0 -0 0.361586258)
(0 -0 0.371991026)
(0 -0 0.371977469)
(0 -0 0.361565415)
(0 -0 0.341771974)
(0 -0 0.314471342)
(0 -0 0.282098428)
(0 -0 0.247141165)
(0 -0 0.211330875)
(0 -0 0.174407468)
(0 -0 0.132330368)
(0 -0 0.0749742625)
(0 -0 0.162176018)
(0 -0 0.203668172)
(0 -0 0.225096455)
(0 -0 0.236099221)
(0 -0 0.242668926)
(0 -0 0.247868111)
(0 -0 0.25276378)
(0 -0 0.257268335)
(0 -0 0.260797372)
(0 -0 0.262735886)
(0 -0 0.262728515)
(0 -0 0.260811003)
(0 -0 0.257394685)
(0 -0 0.253108161)
(0 -0 0.248492095)
(0 -0 0.243536221)
(0 -0 0.237046148)
(0 -0 0.225845528)
(0 -0 0.203891889)
(0 -0 0.161606496)
(0 -0 0.282044972)
(0 -0 0.29514955)
(0 -0 0.28656855)
(0 -0 0.265744812)
(0 -0 0.239935019)
(0 -0 0.214143849)
(0 -0 0.191481228)
(0 -0 0.173666859)
(0 -0 0.161526616)
(0 -0 0.155399718)
(0 -0 0.15541623)
(0 -0 0.161627198)
(0 -0 0.173982966)
(0 -0 0.192164912)
(0 -0 0.215285011)
(0 -0 0.241479698)
(0 -0 0.267443784)
(0 -0 0.287984144)
(0 -0 0.295735804)
(0 -0 0.281301971)
(0 -0 0.434347942)
(0 -0 0.408435985)
(0 -0 0.360421011)
(0 -0 0.300489446)
(0 -0 0.237244759)
(0 -0 0.17729612)
(0 -0 0.12531112)
(0 -0 0.084332817)
(0 -0 0.0561929576)
(0 -0 0.0419006901)
(0 -0 0.0419279304)
(0 -0 0.0563468299)
(0 -0 0.084801649)
(0 -0 0.12632041)
(0 -0 0.178995511)
(0 -0 0.239588791)
(0 -0 0.303149977)
(0 -0 0.362772642)
(0 -0 0.409645643)
(0 -0 0.433583257)
(0 -0 0.619556208)
(0 -0 0.544059443)
(0 -0 0.446464701)
(0 -0 0.338793277)
(0 -0 0.231436439)
(0 -0 0.132583248)
(0 -0 0.048165735)
(0 -0 -0.017848905)
(0 -0 -0.063008949)
(0 -0 -0.085928003)
(0 -0 -0.085943746)
(0 -0 -0.062951088)
(0 -0 -0.017437488)
(0 -0 0.049284276)
(0 -0 0.134684776)
(0 -0 0.234547301)
(0 -0 0.342544547)
(0 -0 0.450033512)
(0 -0 0.546256028)
(0 -0 0.619098086)
(0 -0 0.839525414)
(0 -0 0.702185334)
(0 -0 0.543057121)
(0 -0 0.377212099)
(0 -0 0.217452933)
(0 -0 0.073646317)
(0 -0 -0.047271785)
(0 -0 -0.140843074)
(0 -0 -0.20444401)
(0 -0 -0.236661242)
(0 -0 -0.236825161)
(0 -0 -0.204780907)
(0 -0 -0.140930996)
(0 -0 -0.046546597)
(0 -0 0.075693987)
(0 -0 0.221035469)
(0 -0 0.382010884)
(0 -0 0.548083442)
(0 -0 0.705839831)
(0 -0 0.839948354)
(0 -0 1.09750754)
(0 -0 0.882743856)
(0 -0 0.647103567)
(0 -0 0.410205614)
(0 -0 0.188018733)
(0 -0 -0.00785144)
(0 -0 -0.169874921)
(0 -0 -0.293726618)
(0 -0 -0.377236291)
(0 -0 -0.419443616)
(0 -0 -0.419921446)
(0 -0 -0.378445893)
(0 -0 -0.295043972)
(0 -0 -0.170420423)
(0 -0 -0.00673292)
(0 -0 0.191378338)
(0 -0 0.415708869)
(0 -0 0.653702525)
(0 -0 0.888420822)
(0 -0 1.09970101)
(0 -0 1.39816963)
(0 -0 1.08514946)
(0 -0 0.753480343)
(0 -0 0.429411725)
(0 -0 0.132938139)
(0 -0 -0.12278154)
(0 -0 -0.330437344)
(0 -0 -0.486868701)
(0 -0 -0.59131062)
(0 -0 -0.643954154)
(0 -0 -0.64497329)
(0 -0 -0.594058639)
(0 -0 -0.490463796)
(0 -0 -0.333573976)
(0 -0 -0.12400402)
(0 -0 0.134821327)
(0 -0 0.434805421)
(0 -0 0.761507928)
(0 -0 1.09345669)
(0 -0 1.40339405)
(0 -0 1.74784957)
(0 -0 1.30760404)
(0 -0 0.853724607)
(0 -0 0.422202166)
(0 -0 0.03788162)
(0 -0 -0.28536181)
(0 -0 -0.5420692)
(0 -0 -0.73198709)
(0 -0 -0.85721592)
(0 -0 -0.920105953)
(0 -0 -0.921938925)
(0 -0 -0.862315347)
(0 -0 -0.739187645)
(0 -0 -0.54955926)
(0 -0 -0.290944)
(0 -0 0.03632074)
(0 -0 0.425987545)
(0 -0 0.86257429)
(0 -0 1.31908029)
(0 -0 1.75776059)
(0 -0 2.15519794)
(0 -0 1.54564017)
(0 -0 0.9334946)
(0 -0 0.369131911)
(0 -0 -0.11752991)
(0 -0 -0.51424723)
(0 -0 -0.82055673)
(0 -0 -1.04197661)
(0 -0 -1.18562213)
(0 -0 -1.25737506)
(0 -0 -1.2602917)
(0 -0 -1.193903)
(0 -0 -1.05421609)
(0 -0 -0.83444903)
(0 -0 -0.52674999)
(0 -0 -0.12529899)
(0 -0 0.368895884)
(0 -0 0.941805847)
(0 -0 1.56054196)
(0 -0 2.17180758)
(0 -0 2.63220549)
(0 -0 1.78887522)
(0 -0 0.967690445)
(0 -0 0.239598257)
(0 -0 -0.3625581)
(0 -0 -0.83381768)
(0 -0 -1.18448708)
(0 -0 -1.4303073)
(0 -0 -1.58632444)
(0 -0 -1.66362104)
(0 -0 -1.66779451)
(0 -0 -1.59836649)
(0 -0 -1.44873157)
(0 -0 -1.20668325)
(0 -0 -0.85599261)
(0 -0 -0.37996021)
(0 -0 0.231856188)
(0 -0 0.972967729)
(0 -0 1.80680199)
(0 -0 2.65772487)
(0 -0 3.19470504)
(0 -0 2.01329419)
(0 -0 0.910984555)
(0 -0 -0.01532095)
(0 -0 -0.73915961)
(0 -0 -1.27527865)
(0 -0 -1.65468772)
(0 -0 -1.90964428)
(0 -0 -2.0665334)
(0 -0 -2.14325838)
(0 -0 -2.14861691)
(0 -0 -2.08223008)
(0 -0 -1.93442289)
(0 -0 -1.68608634)
(0 -0 -1.3092082)
(0 -0 -0.76965781)
(0 -0 -0.03498489)
(0 -0 0.909197482)
(0 -0 2.03256242)
(0 -0 3.23114952)
(0 -0 3.85814446)
(0 -0 2.16246379)
(0 -0 0.679540807)
(0 -0 -0.473964597)
(0 -0 -1.30613507)
(0 -0 -1.87648167)
(0 -0 -2.25208866)
(0 -0 -2.48915648)
(0 -0 -2.62821219)
(0 -0 -2.69470446)
(0 -0 -2.70074615)
(0 -0 -2.64620259)
(0 -0 -2.5185102)
(0 -0 -2.29122734)
(0 -0 -1.9219717)
(0 -0 -1.35170327)
(0 -0 -0.509966128)
(0 -0 0.665013646)
(0 -0 2.17916331)
(0 -0 3.90645651)
(0 -0 4.61806723)
(0 -0 2.10223494)
(0 -0 0.116974423)
(0 -0 -1.25889838)
(0 -0 -2.14088094)
(0 -0 -2.67795317)
(0 -0 -2.99247833)
(0 -0 -3.16984142)
(0 -0 -3.26432424)
(0 -0 -3.30723183)
(0 -0 -3.31287566)
(0 -0 -3.28149139)
(0 -0 -3.19904378)
(0 -0 -3.03386915)
(0 -0 -2.73013774)
(0 -0 -2.19912047)
(0 -0 -1.31304038)
(0 -0 0.083510738)
(0 -0 2.1092257)
(0 -0 4.67646476)
(0 -0 5.38281773)
(0 -0 1.5109028)
(0 -0 -1.06365024)
(0 -0 -2.54895702)
(0 -0 -3.33100655)
(0 -0 -3.71033798)
(0 -0 -3.87606102)
(0 -0 -3.93734995)
(0 -0 -3.95421914)
(0 -0 -3.95776117)
(0 -0 -3.96139933)
(0 -0 -3.96574105)
(0 -0 -3.95845959)
(0 -0 -3.90910631)
(0 -0 -3.75722588)
(0 -0 -3.39102287)
(0 -0 -2.61511352)
(0 -0 -1.11818774)
(0 -0 1.49842173)
(0 -0 5.44419926)
(0 -0 5.62391117)
(0 -0 -0.391739691)
(0 -0 -3.35510611)
(0 -0 -4.56177245)
(0 -0 -4.9386033)
(0 -0 -4.96630745)
(0 -0 -4.87026423)
(0 -0 -4.75280946)
(0 -0 -4.6592179)
(0 -0 -4.6087675)
(0 -0 -4.60877942)
(0 -0 -4.65999257)
(0 -0 -4.75660452)
(0 -0 -4.88089278)
(0 -0 -4.98884033)
(0 -0 -4.97794516)
(0 -0 -4.61856062)
(0 -0 -3.41760432)
(0 -0 -0.427190019)
(0 -0 5.67251627)
(0 -0 2.59164181)
(0 -0 -5.39105665)
(0 -0 -7.44057752)
(0 -0 -7.42976024)
(0 -0 -6.90958346)
(0 -0 -6.35272116)
(0 -0 -5.88829952)
(0 -0 -5.54481984)
(0 -0 -5.3208575)
(0 -0 -5.20917534)
(0 -0 -5.20513704)
(0 -0 -5.30915428)
(0 -0 -5.52684106)
(0 -0 -5.86689544)
(0 -0 -6.33298849)
(0 -0 -6.89947798)
(0 -0 -7.43841623)
(0 -0 -7.46895733)
(0 -0 -5.41714978)
(0 -0 2.61856008)
(0 -0 -14.0725103)
(0 -0 -16.3742619)
(0 -0 -13.6227995)
(0 -0 -10.8198515)
(0 -0 -8.91416203)
(0 -0 -7.63815876)
(0 -0 -6.7765112)
(0 -0 -6.21020496)
(0 -0 -5.8657147)
(0 -0 -5.70033664)
(0 -0 -5.69481794)
(0 -0 -5.84897185)
(0 -0 -6.18174526)
(0 -0 -6.73584399)
(0 -0 -7.58562653)
(0 -0 -8.85226241)
(0 -0 -10.7546112)
(0 -0 -13.5665675)
(0 -0 -16.3400212)
(0 -0 -14.0490603)
)
;

boundaryField
{
    top
    {
        type            calculated;
        value           nonuniform List<vector> 
20
(
(0 -0 -25.0773522)
(0 -0 -24.5041777)
(0 -0 -18.0786564)
(0 -0 -13.0645384)
(0 -0 -10.1381821)
(0 -0 -8.37152096)
(0 -0 -7.25490544)
(0 -0 -6.55351567)
(0 -0 -6.13964523)
(0 -0 -5.94480837)
(0 -0 -5.93952775)
(0 -0 -6.12329354)
(0 -0 -6.5245481)
(0 -0 -7.210859)
(0 -0 -8.30975455)
(0 -0 -10.0572368)
(0 -0 -12.9659605)
(0 -0 -17.9769843)
(0 -0 -24.432587)
(0 -0 -25.0365743)
)
;
    }
    left
    {
        type            calculated;
        value           nonuniform List<vector> 
20
(
(0 -0 -0.0121573307)
(0 -0 -3.805158e-05)
(0 -0 0.0497006512)
(0 -0 0.142373409)
(0 -0 0.275552305)
(0 -0 0.447202567)
(0 -0 0.657559638)
(0 -0 0.909284789)
(0 -0 1.20742732)
(0 -0 1.5596783)
(0 -0 1.9773233)
(0 -0 2.47743896)
(0 -0 3.08715799)
(0 -0 3.85040088)
(0 -0 4.83424892)
(0 -0 6.12913698)
(0 -0 7.82781037)
(0 -0 9.65643166)
(0 -0 8.24832107)
(0 -0 -10.9271634)
)
;
    }
    right
    {
        type            calculated;
        value           nonuniform List<vector> 
20
(
(0 -0 -0.0122547383)
(0 -0 -0.00030701901)
(0 -0 0.0490993064)
(0 -0 0.141332329)
(0 -0 0.27403418)
(0 -0 0.445294967)
(0 -0 0.655561936)
(0 -0 0.907810788)
(0 -0 1.20751612)
(0 -0 1.56290528)
(0 -0 1.98589704)
(0 -0 2.4942609)
(0 -0 3.11580063)
(0 -0 3.89488023)
(0 -0 4.89826307)
(0 -0 6.21431611)
(0 -0 7.9302867)
(0 -0 9.75742353)
(0 -0 8.31297204)
(0 -0 -10.8938709)
)
;
    }
    bottom
    {
        type            calculated;
        value           nonuniform List<vector> 
20
(
(0 -0 -0.0118794417)
(0 -0 0.00164921191)
(0 -0 0.053541939)
(0 -0 0.143033197)
(0 -0 0.256814206)
(0 -0 0.379115209)
(0 -0 0.495324146)
(0 -0 0.593284944)
(0 -0 0.663783353)
(0 -0 0.700664633)
(0 -0 0.700827725)
(0 -0 0.664213218)
(0 -0 0.593825406)
(0 -0 0.495781336)
(0 -0 0.379333858)
(0 -0 0.256742899)
(0 -0 0.142749563)
(0 -0 0.0532152007)
(0 -0 0.00143208338)
(0 -0 -0.0119708528)
)
;
    }
    back0
    {
        type            empty;
    }
    front1
    {
        type            empty;
    }
}


// ************************************************************************* //
