/*--------------------------------*- C++ -*----------------------------------*\
| =========                 |                                                 |
| \\      /  F ield         | OpenFOAM: The Open Source CFD Toolbox           |
|  \\    /   O peration     | Version:  3.0.1                                 |
|   \\  /    A nd           | Web:      www.OpenFOAM.org                      |
|    \\/     M anipulation  |                                                 |
\*---------------------------------------------------------------------------*/
FoamFile
{
    version     2.0;
    format      ascii;
    class       volVectorField;
    location    "9";
    object      W;
}
// * * * * * * * * * * * * * * * * * * * * * * * * * * * * * * * * * * * * * //

dimensions      [0 1 -1 0 0 0 0];

internalField   nonuniform List<vector> 
400
(
(8.02369005e-08 -5.54221821e-08 0)
(2.47857901e-07 -2.56703753e-07 0)
(2.43487397e-07 -2.94695423e-07 0)
(-1.05092442e-07 -2.64810317e-08 0)
(-5.75161615e-07 4.39075754e-07 0)
(-7.43942187e-07 7.65600167e-07 0)
(-3.41739422e-07 6.34141204e-07 0)
(4.63864391e-07 1.59901537e-08 0)
(1.13085572e-06 -7.45464806e-07 0)
(1.12346482e-06 -1.13704376e-06 0)
(3.33071414e-07 -8.34616871e-07 0)
(-7.90722725e-07 4.23250432e-08 0)
(-1.52018434e-06 9.76365706e-07 0)
(-1.34805262e-06 1.37829605e-06 0)
(-3.38019321e-07 9.7024579e-07 0)
(9.33366444e-07 -3.59979148e-08 0)
(1.7931145e-06 -1.0802789e-06 0)
(1.89541538e-06 -1.61306961e-06 0)
(1.39083796e-06 -1.4180806e-06 0)
(4.646131e-07 -5.56336634e-07 0)
(-5.99772053e-08 2.04857214e-08 0)
(1.45853808e-07 -4.50835601e-07 0)
(5.98119689e-07 -7.74924113e-07 0)
(6.0719743e-07 -4.676668e-07 0)
(-1.33359688e-08 4.67422563e-07 0)
(-8.68619815e-07 1.44135007e-06 0)
(-1.25748083e-06 1.65551672e-06 0)
(-7.45748608e-07 7.30478117e-07 0)
(4.40168714e-07 -9.04272501e-07 0)
(1.51300813e-06 -2.2091979e-06 0)
(1.67494509e-06 -2.23136384e-06 0)
(7.14652e-07 -8.05976152e-07 0)
(-8.05909963e-07 1.26180009e-06 0)
(-1.92293145e-06 2.69090075e-06 0)
(-1.91973846e-06 2.56109366e-06 0)
(-7.6684711e-07 9.14395089e-07 0)
(9.37521872e-07 -1.29206298e-06 0)
(2.37132857e-06 -2.84539523e-06 0)
(2.8319075e-06 -3.00445839e-06 0)
(1.28861553e-06 -1.54331573e-06 0)
(-3.48459509e-07 3.27406578e-07 0)
(-4.34535404e-07 -3.26894102e-08 0)
(3.55222328e-07 -7.35254113e-07 0)
(1.08134165e-06 -1.09500964e-06 0)
(1.04281655e-06 -6.39822773e-07 0)
(8.80784647e-08 5.16060327e-07 0)
(-1.18735708e-06 1.62864152e-06 0)
(-1.82939601e-06 1.818802e-06 0)
(-1.23994016e-06 7.58818519e-07 0)
(3.17212479e-07 -9.90644662e-07 0)
(1.83645084e-06 -2.29712723e-06 0)
(2.25847599e-06 -2.23027406e-06 0)
(1.22469552e-06 -7.35690218e-07 0)
(-6.54822068e-07 1.29010412e-06 0)
(-2.19945122e-06 2.5903341e-06 0)
(-2.41161626e-06 2.38624234e-06 0)
(-1.07731273e-06 8.5715045e-07 0)
(1.06372242e-06 -1.07274442e-06 0)
(2.61155537e-06 -2.35216128e-06 0)
(1.42599473e-06 -1.90806095e-06 0)
(-5.51924526e-07 4.73465842e-07 0)
(-1.08019676e-06 6.13406643e-07 0)
(-4.55379877e-07 -3.71243811e-08 0)
(7.19457265e-07 -1.0178276e-06 0)
(1.60275265e-06 -1.5555449e-06 0)
(1.40468778e-06 -1.04143987e-06 0)
(5.38032483e-08 3.93555553e-07 0)
(-1.60896792e-06 1.85063461e-06 0)
(-2.37323538e-06 2.26193461e-06 0)
(-1.5605704e-06 1.19080752e-06 0)
(4.12061498e-07 -7.80543663e-07 0)
(2.26374739e-06 -2.39654734e-06 0)
(2.72688161e-06 -2.57902863e-06 0)
(1.43785339e-06 -1.17384033e-06 0)
(-7.89669271e-07 9.43413826e-07 0)
(-2.48622045e-06 2.4676293e-06 0)
(-2.49632026e-06 2.51268403e-06 0)
(-8.43458288e-07 1.11047742e-06 0)
(1.09524829e-06 -8.19059332e-07 0)
(9.03690203e-07 -1.62009885e-06 0)
(-4.22599303e-07 2.00613463e-07 0)
(-1.18549416e-06 9.37287566e-07 0)
(-1.28441995e-06 9.51335242e-07 0)
(-4.17641036e-07 5.59045171e-09 0)
(1.04231951e-06 -1.35432435e-06 0)
(2.06094182e-06 -2.08107891e-06 0)
(1.71454768e-06 -1.43536658e-06 0)
(2.26934943e-08 3.67599463e-07 0)
(-1.93702886e-06 2.19859047e-06 0)
(-2.76122834e-06 2.76942404e-06 0)
(-1.76039456e-06 1.57005159e-06 0)
(4.87359646e-07 -7.13280331e-07 0)
(2.49871982e-06 -2.62826987e-06 0)
(2.91290747e-06 -2.94010725e-06 0)
(1.45225291e-06 -1.46874133e-06 0)
(-8.65752438e-07 8.05133503e-07 0)
(-2.43875964e-06 2.41142012e-06 0)
(-2.29425774e-06 2.36005366e-06 0)
(-9.21786535e-07 8.47134402e-07 0)
(-2.3713593e-08 -6.72416091e-07 0)
(7.57961148e-08 -4.01469493e-07 0)
(-4.1500648e-07 5.46538131e-07 0)
(-1.39119784e-06 1.46729349e-06 0)
(-1.58280039e-06 1.36173278e-06 0)
(-4.79555706e-07 5.37875171e-08 0)
(1.32778325e-06 -1.66695634e-06 0)
(2.50405304e-06 -2.54207946e-06 0)
(2.02208568e-06 -1.76490995e-06 0)
(2.286034e-08 3.40210437e-07 0)
(-2.19309173e-06 2.44344588e-06 0)
(-3.06906535e-06 3.10639615e-06 0)
(-1.92764774e-06 1.80974723e-06 0)
(5.0805767e-07 -6.47429669e-07 0)
(2.6011022e-06 -2.68041678e-06 0)
(2.95272822e-06 -3.00827007e-06 0)
(1.39167757e-06 -1.52485888e-06 0)
(-9.25258352e-07 6.61880473e-07 0)
(-2.41715272e-06 2.05032982e-06 0)
(-2.30712966e-06 1.86470422e-06 0)
(-8.53376673e-07 5.15635955e-07 0)
(6.7044639e-07 -9.06877746e-07 0)
(9.01806796e-07 -4.17281176e-07 0)
(-4.70487439e-07 9.53341901e-07 0)
(-1.84754816e-06 1.98095505e-06 0)
(-1.99029153e-06 1.73777169e-06 0)
(-5.36198496e-07 1.20903101e-07 0)
(1.61530369e-06 -1.91320649e-06 0)
(2.90477856e-06 -2.93219557e-06 0)
(2.27300698e-06 -2.07426876e-06 0)
(8.35013725e-09 2.45260589e-07 0)
(-2.390272e-06 2.54667807e-06 0)
(-3.26430765e-06 3.29656316e-06 0)
(-1.99257496e-06 1.98692725e-06 0)
(5.48296113e-07 -5.05372053e-07 0)
(2.60452327e-06 -2.5421861e-06 0)
(2.80096162e-06 -2.8763962e-06 0)
(1.11973847e-06 -1.48818191e-06 0)
(-1.1185379e-06 5.03400887e-07 0)
(-2.26854636e-06 1.73182627e-06 0)
(-1.12628591e-06 1.30814766e-06 0)
(9.36214485e-07 -8.61686353e-07 0)
(1.89581162e-06 -1.29108166e-06 0)
(1.0016249e-06 -3.9529948e-07 0)
(-8.29417843e-07 1.21461465e-06 0)
(-2.34587172e-06 2.3990048e-06 0)
(-2.323543e-06 2.09233408e-06 0)
(-5.50377101e-07 2.21285053e-07 0)
(1.85945937e-06 -2.0853007e-06 0)
(3.19962262e-06 -3.23643198e-06 0)
(2.42871025e-06 -2.33647188e-06 0)
(-1.51579693e-08 1.17284484e-07 0)
(-2.48390377e-06 2.53781188e-06 0)
(-3.29127057e-06 3.34634737e-06 0)
(-1.92718509e-06 2.06903041e-06 0)
(5.81350711e-07 -3.62172752e-07 0)
(2.43559986e-06 -2.30928697e-06 0)
(2.40662901e-06 -2.5897624e-06 0)
(7.73335087e-07 -1.24026804e-06 0)
(-9.02703061e-07 5.91060664e-07 0)
(-7.21964272e-07 1.26612494e-06 0)
(6.11659147e-07 -1.66487338e-07 0)
(1.76465867e-06 -1.36031146e-06 0)
(2.02233632e-06 -1.67160134e-06 0)
(9.18995873e-07 -5.64099871e-07 0)
(-1.11729306e-06 1.38409715e-06 0)
(-2.71325916e-06 2.76761045e-06 0)
(-2.56309502e-06 2.4168145e-06 0)
(-5.54993256e-07 3.43278997e-07 0)
(2.01931889e-06 -2.16505381e-06 0)
(3.36020767e-06 -3.41233706e-06 0)
(2.48420073e-06 -2.50657368e-06 0)
(-3.24125449e-08 -1.71724603e-08 0)
(-2.45691535e-06 2.4136658e-06 0)
(-3.15586852e-06 3.22421453e-06 0)
(-1.77123187e-06 2.00963243e-06 0)
(5.63577231e-07 -2.52961907e-07 0)
(2.14123199e-06 -1.96400831e-06 0)
(2.04989967e-06 -2.06518237e-06 0)
(8.66513049e-07 -7.91614442e-07 0)
(6.38616278e-08 4.77764817e-07 0)
(-1.66082946e-07 7.76701571e-07 0)
(4.22272519e-07 -4.40651072e-07 0)
(1.78200829e-06 -1.89985291e-06 0)
(2.22239937e-06 -2.13969693e-06 0)
(9.86292219e-07 -7.25837931e-07 0)
(-1.28992335e-06 1.52228293e-06 0)
(-2.97460578e-06 3.04985777e-06 0)
(-2.72354483e-06 2.6693512e-06 0)
(-5.58521598e-07 4.77463632e-07 0)
(2.08390772e-06 -2.13500054e-06 0)
(3.37753211e-06 -3.43371785e-06 0)
(2.43632822e-06 -2.56430581e-06 0)
(-4.69388133e-08 -1.48998042e-07 0)
(-2.32641014e-06 2.17698481e-06 0)
(-2.89155537e-06 2.93865211e-06 0)
(-1.54050126e-06 1.83674775e-06 0)
(5.75662353e-07 -1.31478611e-07 0)
(1.95295827e-06 -1.51024667e-06 0)
(1.91807159e-06 -1.52455378e-06 0)
(7.1970198e-07 -4.96089516e-07 0)
(-9.10597389e-07 1.30918629e-06 0)
(-1.33560807e-06 9.04438232e-07 0)
(3.15334611e-07 -8.03569801e-07 0)
(2.12021642e-06 -2.33095473e-06 0)
(2.55090187e-06 -2.46281091e-06 0)
(1.06291861e-06 -8.5574865e-07 0)
(-1.41503567e-06 1.57489167e-06 0)
(-3.12678762e-06 3.19696851e-06 0)
(-2.78610859e-06 2.82384166e-06 0)
(-5.53981559e-07 6.1407426e-07 0)
(2.05093967e-06 -1.99720211e-06 0)
(3.24934364e-06 -3.29963975e-06 0)
(2.28411215e-06 -2.50463838e-06 0)
(-6.57500512e-08 -2.61873506e-07 0)
(-2.10785944e-06 1.8656209e-06 0)
(-2.5004628e-06 2.55070907e-06 0)
(-1.18824194e-06 1.5992978e-06 0)
(6.73898864e-07 -6.1926976e-08 0)
(1.68198893e-06 -1.20635056e-06 0)
(8.60239835e-07 -1.02316623e-06 0)
(-1.11164529e-06 9.97629349e-07 0)
(-2.33467519e-06 1.72649832e-06 0)
(-1.44423006e-06 9.16550931e-07 0)
(6.07289743e-07 -9.10514328e-07 0)
(2.46981848e-06 -2.5461518e-06 0)
(2.74749973e-06 -2.68860672e-06 0)
(1.07954629e-06 -9.99940397e-07 0)
(-1.47244564e-06 1.52068018e-06 0)
(-3.14038711e-06 3.19450689e-06 0)
(-2.73831376e-06 2.86401605e-06 0)
(-5.39591144e-07 7.34280643e-07 0)
(1.92464106e-06 -1.77094852e-06 0)
(2.98778962e-06 -3.02469225e-06 0)
(2.04293484e-06 -2.32759816e-06 0)
(-7.80193757e-08 -3.29863944e-07 0)
(-1.79716533e-06 1.52931962e-06 0)
(-1.99915471e-06 2.09087593e-06 0)
(-8.3762532e-07 1.23124231e-06 0)
(4.73287357e-07 -1.78106015e-07 0)
(4.67757108e-07 -8.36337187e-07 0)
(-6.07450087e-07 -1.08657975e-08 0)
(-1.85869165e-06 1.39181049e-06 0)
(-2.29680584e-06 2.05218434e-06 0)
(-1.30945141e-06 1.16224851e-06 0)
(7.77630244e-07 -8.72981017e-07 0)
(2.60840753e-06 -2.65393219e-06 0)
(2.7955175e-06 -2.83273601e-06 0)
(1.07027333e-06 -1.1390141e-06 0)
(-1.44019097e-06 1.37177767e-06 0)
(-3.0131011e-06 3.04138887e-06 0)
(-2.58540857e-06 2.77906819e-06 0)
(-5.13124981e-07 8.19049021e-07 0)
(1.72352944e-06 -1.4815177e-06 0)
(2.6260564e-06 -2.63292178e-06 0)
(1.74749663e-06 -2.04426882e-06 0)
(-7.31916854e-08 -3.47932333e-07 0)
(-1.45463198e-06 1.16748904e-06 0)
(-1.58876177e-06 1.5349253e-06 0)
(-8.07626802e-07 7.78137574e-07 0)
(-1.33776047e-07 -1.77480043e-07 0)
(2.79291702e-07 -1.05168732e-06 0)
(-1.96301199e-07 8.7502465e-08 0)
(-1.64715225e-06 1.78078015e-06 0)
(-2.31894471e-06 2.41904958e-06 0)
(-1.34870154e-06 1.36229877e-06 0)
(7.87225164e-07 -8.01593782e-07 0)
(2.59507714e-06 -2.63873872e-06 0)
(2.73387774e-06 -2.85839664e-06 0)
(1.04289437e-06 -1.24825826e-06 0)
(-1.32828072e-06 1.14673739e-06 0)
(-2.76100144e-06 2.75441569e-06 0)
(-2.33757746e-06 2.57771747e-06 0)
(-4.67433008e-07 8.59652722e-07 0)
(1.47699844e-06 -1.15787268e-06 0)
(2.20477187e-06 -2.16638649e-06 0)
(1.41501677e-06 -1.6981554e-06 0)
(-1.08356886e-07 -3.48057787e-07 0)
(-1.22910682e-06 7.99068453e-07 0)
(-1.35175443e-06 1.04078282e-06 0)
(-5.36586757e-07 4.37256123e-07 0)
(9.58503495e-07 -1.40287933e-06 0)
(1.53698364e-06 -1.27371517e-06 0)
(4.55499166e-08 3.05915375e-07 0)
(-1.76410979e-06 1.98422551e-06 0)
(-2.45199766e-06 2.55225014e-06 0)
(-1.39341411e-06 1.4702767e-06 0)
(7.37859124e-07 -6.71363271e-07 0)
(2.46097404e-06 -2.48600642e-06 0)
(2.5674163e-06 -2.75529856e-06 0)
(9.93480752e-07 -1.30196358e-06 0)
(-1.15127091e-06 8.8785735e-07 0)
(-2.40746128e-06 2.37659924e-06 0)
(-2.01443008e-06 2.28310666e-06 0)
(-4.0304237e-07 8.45487889e-07 0)
(1.20538091e-06 -8.44920631e-07 0)
(1.74143746e-06 -1.68937254e-06 0)
(1.02877425e-06 -1.33672522e-06 0)
(-2.05618433e-07 -2.97951785e-07 0)
(-9.74350418e-07 5.72055549e-07 0)
(-5.34245776e-07 6.20615828e-07 0)
(9.92605349e-07 -8.10125574e-07 0)
(2.19406246e-06 -1.70745018e-06 0)
(1.59715185e-06 -1.27049933e-06 0)
(-1.21289967e-07 2.47188853e-07 0)
(-1.8738226e-06 1.89939054e-06 0)
(-2.43853765e-06 2.49328412e-06 0)
(-1.36386032e-06 1.50178005e-06 0)
(6.48808524e-07 -4.95121933e-07 0)
(2.22888485e-06 -2.19683337e-06 0)
(2.31932837e-06 -2.49876076e-06 0)
(9.22354485e-07 -1.25934499e-06 0)
(-9.39904349e-07 6.35503503e-07 0)
(-1.99984963e-06 1.93438328e-06 0)
(-1.65447598e-06 1.89946577e-06 0)
(-3.32604938e-07 7.55675736e-07 0)
(9.18550715e-07 -5.81778328e-07 0)
(1.26302374e-06 -1.23098491e-06 0)
(6.75353488e-07 -9.36890336e-07 0)
(-1.3280728e-07 -1.4164379e-07 0)
(-2.25785597e-07 3.65701736e-07 0)
(4.04355082e-07 3.20172172e-07 0)
(1.41203134e-06 -8.98110659e-07 0)
(1.96190311e-06 -1.79266156e-06 0)
(1.37334776e-06 -1.45851314e-06 0)
(-2.07978939e-07 5.83251225e-09 0)
(-1.78488017e-06 1.62772872e-06 0)
(-2.24602087e-06 2.28155115e-06 0)
(-1.23767923e-06 1.49258228e-06 0)
(5.59411661e-07 -2.28267567e-07 0)
(1.92583012e-06 -1.7478657e-06 0)
(1.9814134e-06 -2.10619315e-06 0)
(7.89552942e-07 -1.16464967e-06 0)
(-7.45230348e-07 3.52305037e-07 0)
(-1.57870562e-06 1.42260836e-06 0)
(-1.27637292e-06 1.45237515e-06 0)
(-2.49903241e-07 6.2526135e-07 0)
(6.5874306e-07 -3.39233233e-07 0)
(8.79838034e-07 -7.73344487e-07 0)
(5.13878858e-07 -5.33696706e-07 0)
(1.12222119e-07 -2.34228012e-08 0)
(-3.65429613e-07 1.20898043e-06 0)
(-1.78247864e-07 5.31061903e-07 0)
(9.71733194e-07 -9.98835251e-07 0)
(1.67534567e-06 -1.96945807e-06 0)
(1.24009708e-06 -1.66952342e-06 0)
(-1.19822717e-07 -2.59343329e-07 0)
(-1.46504345e-06 1.35611626e-06 0)
(-1.85697516e-06 2.12568106e-06 0)
(-1.03894757e-06 1.56704213e-06 0)
(4.01383737e-07 8.74764219e-08 0)
(1.4784259e-06 -1.32283304e-06 0)
(1.51916342e-06 -1.79138944e-06 0)
(6.10938347e-07 -1.14151628e-06 0)
(-5.2673071e-07 5.79546307e-08 0)
(-1.11556394e-06 9.67723199e-07 0)
(-8.75624923e-07 1.08805973e-06 0)
(-1.47781522e-07 5.45750752e-07 0)
(4.68531736e-07 -1.12975548e-07 0)
(6.08055191e-07 -4.07071246e-07 0)
(2.55331428e-07 -2.29042482e-07 0)
(-7.95893023e-07 1.31004896e-06 0)
(-1.43177029e-06 1.45377981e-06 0)
(-5.46985057e-07 2.27109818e-07 0)
(7.57024236e-07 -1.26578709e-06 0)
(1.53600607e-06 -2.03435076e-06 0)
(1.25904735e-06 -1.55344015e-06 0)
(1.39988574e-07 -9.58289295e-08 0)
(-1.04220761e-06 1.41604525e-06 0)
(-1.50104326e-06 2.02891296e-06 0)
(-9.81256926e-07 1.40182018e-06 0)
(9.71197511e-08 9.66575864e-09 0)
(9.76831868e-07 -1.22318529e-06 0)
(1.11632185e-06 -1.57187997e-06 0)
(5.42688794e-07 -9.68238586e-07 0)
(-2.3850637e-07 4.19607217e-08 0)
(-6.67791872e-07 7.60303084e-07 0)
(-5.37549251e-07 8.3359331e-07 0)
(-8.0033586e-08 4.22148788e-07 0)
(2.79089864e-07 -3.48392093e-08 0)
(1.80081209e-07 -1.73423456e-07 0)
(-5.35804497e-07 5.36502164e-07 0)
(-1.27342287e-06 7.92772735e-07 0)
(-1.14796458e-06 3.832208e-07 0)
(-3.34481171e-07 -3.09063882e-07 0)
(6.71314238e-07 -8.46917576e-07 0)
(1.22427686e-06 -8.76439859e-07 0)
(9.87757531e-07 -3.61834533e-07 0)
(1.46570195e-07 3.74100411e-07 0)
(-7.30478611e-07 8.65383865e-07 0)
(-1.08777456e-06 8.18126607e-07 0)
(-7.53437956e-07 2.98880264e-07 0)
(-2.1929869e-08 -3.32212723e-07 0)
(5.92217303e-07 -6.82314458e-07 0)
(7.28990157e-07 -5.87190003e-07 0)
(4.05227168e-07 -1.88272557e-07 0)
(-5.97154437e-08 2.09458623e-07 0)
(-3.22265181e-07 3.70425912e-07 0)
(-2.67630229e-07 2.71992157e-07 0)
(-5.01949649e-08 7.06197524e-08 0)
(2.86980592e-08 -4.68063921e-08 0)
)
;

boundaryField
{
    top
    {
        type            calculated;
        value           uniform (-5.55111512e-15 0 0);
    }
    left
    {
        type            calculated;
        value           uniform (0 0 0);
    }
    right
    {
        type            calculated;
        value           uniform (0 0 0);
    }
    bottom
    {
        type            calculated;
        value           uniform (0 0 0);
    }
    back0
    {
        type            empty;
    }
    front1
    {
        type            empty;
    }
}


// ************************************************************************* //
