/*--------------------------------*- C++ -*----------------------------------*\
| =========                 |                                                 |
| \\      /  F ield         | OpenFOAM: The Open Source CFD Toolbox           |
|  \\    /   O peration     | Version:  3.0.1                                 |
|   \\  /    A nd           | Web:      www.OpenFOAM.org                      |
|    \\/     M anipulation  |                                                 |
\*---------------------------------------------------------------------------*/
FoamFile
{
    version     2.0;
    format      ascii;
    class       volScalarField;
    location    "6";
    object      magVorticity;
}
// * * * * * * * * * * * * * * * * * * * * * * * * * * * * * * * * * * * * * //

dimensions      [0 0 -1 0 0 0 0];

internalField   nonuniform List<scalar> 
400
(
0.00347019464
0.0221853064
0.0755175148
0.156108652
0.254454253
0.358690656
0.45725911
0.540229298
0.599920578
0.63113848
0.631252066
0.600220462
0.540607915
0.457582528
0.358850548
0.254412301
0.155913906
0.0752822621
0.0220149335
0.00355281348
0.0218563283
0.0761113204
0.128104242
0.186678391
0.251556562
0.318273328
0.380917514
0.433681252
0.471724298
0.491634065
0.491655186
0.47178429
0.433771023
0.381024601
0.318383887
0.251655352
0.186746415
0.128115695
0.0760345099
0.0216763573
0.0753323604
0.132300041
0.174101855
0.210913872
0.246757819
0.281835114
0.314345923
0.341749141
0.36158627
0.371991034
0.371977482
0.361565436
0.341772004
0.314471367
0.282098438
0.247141158
0.21133086
0.174407469
0.132330408
0.0749742222
0.162175792
0.203668065
0.225096419
0.236099223
0.242668945
0.247868137
0.252763805
0.257268356
0.260797391
0.262735903
0.262728531
0.26081102
0.257394699
0.253108172
0.248492101
0.243536224
0.237046152
0.225845545
0.203891927
0.161606433
0.282044844
0.295149461
0.286568501
0.265744793
0.239935019
0.214143859
0.191481245
0.173666869
0.161526633
0.155399731
0.155416241
0.161627207
0.173982971
0.192164922
0.215285017
0.241479702
0.267443788
0.287984155
0.295735814
0.281301917
0.434347883
0.408435906
0.36042096
0.30048942
0.237244749
0.17729612
0.125311126
0.084332826
0.0561929678
0.0419006969
0.0419279432
0.0563468401
0.084801649
0.126320417
0.178995515
0.239588793
0.303149978
0.362772637
0.409645624
0.433583249
0.619556187
0.544059373
0.446464653
0.33879325
0.231436425
0.132583243
0.048165732
0.017848901
0.063008952
0.08592799
0.085943734
0.062951077
0.017437477
0.049284276
0.134684784
0.234547303
0.342544547
0.450033499
0.546255997
0.619098126
0.839525395
0.702185277
0.543057081
0.377212077
0.217452915
0.073646298
0.047271787
0.140843077
0.204444009
0.23666124
0.236825162
0.204780918
0.140930987
0.046546593
0.075693987
0.221035472
0.382010888
0.548083434
0.705839806
0.839948414
1.09750749
0.882743817
0.647103544
0.410205595
0.188018719
0.00785144
0.169874926
0.293726623
0.377236285
0.419443626
0.419921446
0.378445897
0.295043963
0.170420424
0.00673292
0.191378359
0.415708864
0.653702513
0.888420819
1.09970105
1.39816955
1.08514945
0.753480331
0.42941172
0.132938129
0.12278154
0.330437351
0.486868701
0.591310623
0.643954158
0.644973292
0.59405863
0.490463794
0.333573981
0.12400401
0.134821326
0.434805425
0.761507934
1.09345671
1.40339406
1.7478495
1.30760404
0.853724605
0.422202163
0.0378816
0.28536183
0.54206919
0.731987083
0.857215937
0.920105947
0.92193893
0.86231535
0.739187643
0.54955925
0.29094399
0.03632073
0.425987543
0.862574306
1.31908032
1.75776055
2.1551979
1.54564018
0.933494597
0.369131902
0.11752992
0.51424724
0.82055673
1.04197662
1.18562214
1.25737505
1.26029171
1.193903
1.05421609
0.83444902
0.52674999
0.12529899
0.368895879
0.941805853
1.56054198
2.17180755
2.6322055
1.78887521
0.967690446
0.239598247
0.36255811
0.83381769
1.18448708
1.43030731
1.58632445
1.66362104
1.66779451
1.59836648
1.44873158
1.20668325
0.85599262
0.3799602
0.231856194
0.97296774
1.806802
2.65772485
3.19470509
2.01329416
0.910984536
0.01532095
0.73915961
1.27527866
1.65468773
1.90964428
2.06653339
2.14325839
2.14861691
2.08223008
1.93442289
1.68608635
1.30920821
0.7696578
0.03498488
0.909197481
2.03256241
3.23114954
3.85814449
2.16246376
0.679540791
0.473964607
1.30613508
1.87648167
2.25208867
2.48915648
2.62821219
2.69470446
2.70074616
2.64620259
2.51851019
2.29122734
1.92197171
1.35170328
0.50996612
0.665013645
2.17916329
3.90645653
4.61806723
2.10223493
0.116974404
1.2588984
2.14088093
2.67795316
2.99247834
3.16984143
3.26432423
3.30723184
3.31287566
3.2814914
3.19904378
3.03386914
2.73013774
2.19912047
1.31304037
0.08351073
2.1092257
4.67646478
5.38281768
1.51090281
1.06365024
2.54895702
3.33100656
3.71033798
3.87606101
3.93734995
3.95421914
3.95776117
3.96139934
3.96574104
3.95845959
3.90910631
3.75722588
3.39102287
2.61511351
1.11818774
1.49842173
5.44419927
5.6239111
0.391739668
3.35510611
4.56177246
4.9386033
4.96630743
4.87026421
4.75280945
4.65921791
4.60876751
4.60877943
4.65999257
4.75660451
4.88089278
4.98884032
4.97794516
4.61856063
3.41760431
0.427190019
5.67251626
2.59164176
5.39105665
7.44057753
7.42976025
6.90958343
6.35272113
5.88829949
5.54481984
5.32085753
5.20917538
5.20513706
5.30915428
5.52684105
5.86689544
6.33298848
6.89947798
7.43841624
7.46895734
5.41714978
2.61856008
14.0725103
16.3742619
13.6227995
10.8198515
8.91416205
7.6381588
6.77651126
6.21020498
5.8657147
5.7003366
5.69481791
5.84897184
6.18174528
6.73584403
7.58562656
8.85226241
10.7546112
13.5665675
16.3400212
14.0490603
)
;

boundaryField
{
    top
    {
        type            calculated;
        value           nonuniform List<scalar> 
20
(
25.0773522
24.5041776
18.0786562
13.0645383
10.1381821
8.37152107
7.25490561
6.55351576
6.13964521
5.94480825
5.93952763
6.12329349
6.52454813
7.21085908
8.30975464
10.0572368
12.9659604
17.9769843
24.432587
25.0365743
)
;
    }
    left
    {
        type            calculated;
        value           nonuniform List<scalar> 
20
(
0.0121577538
3.928684e-05
0.049699975
0.142373079
0.275552169
0.447202565
0.657559687
0.909284796
1.20742722
1.55967812
1.97732313
2.47743891
3.08715809
3.85040106
4.83424903
6.12913696
7.82781023
9.65643149
8.24832096
10.9271635
)
;
    }
    right
    {
        type            calculated;
        value           nonuniform List<scalar> 
20
(
0.0122547249
0.00030705743
0.0490991703
0.141332127
0.274034016
0.445294933
0.655562041
0.907810959
1.20751625
1.56290529
1.98589695
2.49426077
3.11580056
3.89488025
4.89826314
6.21431616
7.93028675
9.75742353
8.31297204
10.8938709
)
;
    }
    bottom
    {
        type            calculated;
        value           nonuniform List<scalar> 
20
(
0.0118790023
0.00165045637
0.0535425701
0.143033436
0.256814273
0.379115236
0.495324231
0.593285113
0.663783548
0.700664754
0.700827693
0.664213056
0.593825215
0.495781248
0.379333937
0.256743107
0.142749788
0.0532153288
0.00143209982
0.0119708783
)
;
    }
    back0
    {
        type            empty;
    }
    front1
    {
        type            empty;
    }
}


// ************************************************************************* //
