/*--------------------------------*- C++ -*----------------------------------*\
| =========                 |                                                 |
| \\      /  F ield         | OpenFOAM: The Open Source CFD Toolbox           |
|  \\    /   O peration     | Version:  3.0.1                                 |
|   \\  /    A nd           | Web:      www.OpenFOAM.org                      |
|    \\/     M anipulation  |                                                 |
\*---------------------------------------------------------------------------*/
FoamFile
{
    version     2.0;
    format      ascii;
    class       volVectorField;
    location    "6";
    object      vorticity;
}
// * * * * * * * * * * * * * * * * * * * * * * * * * * * * * * * * * * * * * //

dimensions      [0 0 -1 0 0 0 0];

internalField   nonuniform List<vector> 
400
(
(0 -0 -0.00347019464)
(0 -0 0.0221853064)
(0 -0 0.0755175148)
(0 -0 0.156108652)
(0 -0 0.254454253)
(0 -0 0.358690656)
(0 -0 0.45725911)
(0 -0 0.540229298)
(0 -0 0.599920578)
(0 -0 0.63113848)
(0 -0 0.631252066)
(0 -0 0.600220462)
(0 -0 0.540607915)
(0 -0 0.457582528)
(0 -0 0.358850548)
(0 -0 0.254412301)
(0 -0 0.155913906)
(0 -0 0.0752822621)
(0 -0 0.0220149335)
(0 -0 -0.00355281348)
(0 -0 0.0218563283)
(0 -0 0.0761113204)
(0 -0 0.128104242)
(0 -0 0.186678391)
(0 -0 0.251556562)
(0 -0 0.318273328)
(0 -0 0.380917514)
(0 -0 0.433681252)
(0 -0 0.471724298)
(0 -0 0.491634065)
(0 -0 0.491655186)
(0 -0 0.47178429)
(0 -0 0.433771023)
(0 -0 0.381024601)
(0 -0 0.318383887)
(0 -0 0.251655352)
(0 -0 0.186746415)
(0 -0 0.128115695)
(0 -0 0.0760345099)
(0 -0 0.0216763573)
(0 -0 0.0753323604)
(0 -0 0.132300041)
(0 -0 0.174101855)
(0 -0 0.210913872)
(0 -0 0.246757819)
(0 -0 0.281835114)
(0 -0 0.314345923)
(0 -0 0.341749141)
(0 -0 0.36158627)
(0 -0 0.371991034)
(0 -0 0.371977482)
(0 -0 0.361565436)
(0 -0 0.341772004)
(0 -0 0.314471367)
(0 -0 0.282098438)
(0 -0 0.247141158)
(0 -0 0.21133086)
(0 -0 0.174407469)
(0 -0 0.132330408)
(0 -0 0.0749742222)
(0 -0 0.162175792)
(0 -0 0.203668065)
(0 -0 0.225096419)
(0 -0 0.236099223)
(0 -0 0.242668945)
(0 -0 0.247868137)
(0 -0 0.252763805)
(0 -0 0.257268356)
(0 -0 0.260797391)
(0 -0 0.262735903)
(0 -0 0.262728531)
(0 -0 0.26081102)
(0 -0 0.257394699)
(0 -0 0.253108172)
(0 -0 0.248492101)
(0 -0 0.243536224)
(0 -0 0.237046152)
(0 -0 0.225845545)
(0 -0 0.203891927)
(0 -0 0.161606433)
(0 -0 0.282044844)
(0 -0 0.295149461)
(0 -0 0.286568501)
(0 -0 0.265744793)
(0 -0 0.239935019)
(0 -0 0.214143859)
(0 -0 0.191481245)
(0 -0 0.173666869)
(0 -0 0.161526633)
(0 -0 0.155399731)
(0 -0 0.155416241)
(0 -0 0.161627207)
(0 -0 0.173982971)
(0 -0 0.192164922)
(0 -0 0.215285017)
(0 -0 0.241479702)
(0 -0 0.267443788)
(0 -0 0.287984155)
(0 -0 0.295735814)
(0 -0 0.281301917)
(0 -0 0.434347883)
(0 -0 0.408435906)
(0 -0 0.36042096)
(0 -0 0.30048942)
(0 -0 0.237244749)
(0 -0 0.17729612)
(0 -0 0.125311126)
(0 -0 0.084332826)
(0 -0 0.0561929678)
(0 -0 0.0419006969)
(0 -0 0.0419279432)
(0 -0 0.0563468401)
(0 -0 0.084801649)
(0 -0 0.126320417)
(0 -0 0.178995515)
(0 -0 0.239588793)
(0 -0 0.303149978)
(0 -0 0.362772637)
(0 -0 0.409645624)
(0 -0 0.433583249)
(0 -0 0.619556187)
(0 -0 0.544059373)
(0 -0 0.446464653)
(0 -0 0.33879325)
(0 -0 0.231436425)
(0 -0 0.132583243)
(0 -0 0.048165732)
(0 -0 -0.017848901)
(0 -0 -0.063008952)
(0 -0 -0.08592799)
(0 -0 -0.085943734)
(0 -0 -0.062951077)
(0 -0 -0.017437477)
(0 -0 0.049284276)
(0 -0 0.134684784)
(0 -0 0.234547303)
(0 -0 0.342544547)
(0 -0 0.450033499)
(0 -0 0.546255997)
(0 -0 0.619098126)
(0 -0 0.839525395)
(0 -0 0.702185277)
(0 -0 0.543057081)
(0 -0 0.377212077)
(0 -0 0.217452915)
(0 -0 0.073646298)
(0 -0 -0.047271787)
(0 -0 -0.140843077)
(0 -0 -0.204444009)
(0 -0 -0.23666124)
(0 -0 -0.236825162)
(0 -0 -0.204780918)
(0 -0 -0.140930987)
(0 -0 -0.046546593)
(0 -0 0.075693987)
(0 -0 0.221035472)
(0 -0 0.382010888)
(0 -0 0.548083434)
(0 -0 0.705839806)
(0 -0 0.839948414)
(0 -0 1.09750749)
(0 -0 0.882743817)
(0 -0 0.647103544)
(0 -0 0.410205595)
(0 -0 0.188018719)
(0 -0 -0.00785144)
(0 -0 -0.169874926)
(0 -0 -0.293726623)
(0 -0 -0.377236285)
(0 -0 -0.419443626)
(0 -0 -0.419921446)
(0 -0 -0.378445897)
(0 -0 -0.295043963)
(0 -0 -0.170420424)
(0 -0 -0.00673292)
(0 -0 0.191378359)
(0 -0 0.415708864)
(0 -0 0.653702513)
(0 -0 0.888420819)
(0 -0 1.09970105)
(0 -0 1.39816955)
(0 -0 1.08514945)
(0 -0 0.753480331)
(0 -0 0.42941172)
(0 -0 0.132938129)
(0 -0 -0.12278154)
(0 -0 -0.330437351)
(0 -0 -0.486868701)
(0 -0 -0.591310623)
(0 -0 -0.643954158)
(0 -0 -0.644973292)
(0 -0 -0.59405863)
(0 -0 -0.490463794)
(0 -0 -0.333573981)
(0 -0 -0.12400401)
(0 -0 0.134821326)
(0 -0 0.434805425)
(0 -0 0.761507934)
(0 -0 1.09345671)
(0 -0 1.40339406)
(0 -0 1.7478495)
(0 -0 1.30760404)
(0 -0 0.853724605)
(0 -0 0.422202163)
(0 -0 0.0378816)
(0 -0 -0.28536183)
(0 -0 -0.54206919)
(0 -0 -0.731987083)
(0 -0 -0.857215937)
(0 -0 -0.920105947)
(0 -0 -0.92193893)
(0 -0 -0.86231535)
(0 -0 -0.739187643)
(0 -0 -0.54955925)
(0 -0 -0.29094399)
(0 -0 0.03632073)
(0 -0 0.425987543)
(0 -0 0.862574306)
(0 -0 1.31908032)
(0 -0 1.75776055)
(0 -0 2.1551979)
(0 -0 1.54564018)
(0 -0 0.933494597)
(0 -0 0.369131902)
(0 -0 -0.11752992)
(0 -0 -0.51424724)
(0 -0 -0.82055673)
(0 -0 -1.04197662)
(0 -0 -1.18562214)
(0 -0 -1.25737505)
(0 -0 -1.26029171)
(0 -0 -1.193903)
(0 -0 -1.05421609)
(0 -0 -0.83444902)
(0 -0 -0.52674999)
(0 -0 -0.12529899)
(0 -0 0.368895879)
(0 -0 0.941805853)
(0 -0 1.56054198)
(0 -0 2.17180755)
(0 -0 2.6322055)
(0 -0 1.78887521)
(0 -0 0.967690446)
(0 -0 0.239598247)
(0 -0 -0.36255811)
(0 -0 -0.83381769)
(0 -0 -1.18448708)
(0 -0 -1.43030731)
(0 -0 -1.58632445)
(0 -0 -1.66362104)
(0 -0 -1.66779451)
(0 -0 -1.59836648)
(0 -0 -1.44873158)
(0 -0 -1.20668325)
(0 -0 -0.85599262)
(0 -0 -0.3799602)
(0 -0 0.231856194)
(0 -0 0.97296774)
(0 -0 1.806802)
(0 -0 2.65772485)
(0 -0 3.19470509)
(0 -0 2.01329416)
(0 -0 0.910984536)
(0 -0 -0.01532095)
(0 -0 -0.73915961)
(0 -0 -1.27527866)
(0 -0 -1.65468773)
(0 -0 -1.90964428)
(0 -0 -2.06653339)
(0 -0 -2.14325839)
(0 -0 -2.14861691)
(0 -0 -2.08223008)
(0 -0 -1.93442289)
(0 -0 -1.68608635)
(0 -0 -1.30920821)
(0 -0 -0.7696578)
(0 -0 -0.03498488)
(0 -0 0.909197481)
(0 -0 2.03256241)
(0 -0 3.23114954)
(0 -0 3.85814449)
(0 -0 2.16246376)
(0 -0 0.679540791)
(0 -0 -0.473964607)
(0 -0 -1.30613508)
(0 -0 -1.87648167)
(0 -0 -2.25208867)
(0 -0 -2.48915648)
(0 -0 -2.62821219)
(0 -0 -2.69470446)
(0 -0 -2.70074616)
(0 -0 -2.64620259)
(0 -0 -2.51851019)
(0 -0 -2.29122734)
(0 -0 -1.92197171)
(0 -0 -1.35170328)
(0 -0 -0.50996612)
(0 -0 0.665013645)
(0 -0 2.17916329)
(0 -0 3.90645653)
(0 -0 4.61806723)
(0 -0 2.10223493)
(0 -0 0.116974404)
(0 -0 -1.2588984)
(0 -0 -2.14088093)
(0 -0 -2.67795316)
(0 -0 -2.99247834)
(0 -0 -3.16984143)
(0 -0 -3.26432423)
(0 -0 -3.30723184)
(0 -0 -3.31287566)
(0 -0 -3.2814914)
(0 -0 -3.19904378)
(0 -0 -3.03386914)
(0 -0 -2.73013774)
(0 -0 -2.19912047)
(0 -0 -1.31304037)
(0 -0 0.08351073)
(0 -0 2.1092257)
(0 -0 4.67646478)
(0 -0 5.38281768)
(0 -0 1.51090281)
(0 -0 -1.06365024)
(0 -0 -2.54895702)
(0 -0 -3.33100656)
(0 -0 -3.71033798)
(0 -0 -3.87606101)
(0 -0 -3.93734995)
(0 -0 -3.95421914)
(0 -0 -3.95776117)
(0 -0 -3.96139934)
(0 -0 -3.96574104)
(0 -0 -3.95845959)
(0 -0 -3.90910631)
(0 -0 -3.75722588)
(0 -0 -3.39102287)
(0 -0 -2.61511351)
(0 -0 -1.11818774)
(0 -0 1.49842173)
(0 -0 5.44419927)
(0 -0 5.6239111)
(0 -0 -0.391739668)
(0 -0 -3.35510611)
(0 -0 -4.56177246)
(0 -0 -4.9386033)
(0 -0 -4.96630743)
(0 -0 -4.87026421)
(0 -0 -4.75280945)
(0 -0 -4.65921791)
(0 -0 -4.60876751)
(0 -0 -4.60877943)
(0 -0 -4.65999257)
(0 -0 -4.75660451)
(0 -0 -4.88089278)
(0 -0 -4.98884032)
(0 -0 -4.97794516)
(0 -0 -4.61856063)
(0 -0 -3.41760431)
(0 -0 -0.427190019)
(0 -0 5.67251626)
(0 -0 2.59164176)
(0 -0 -5.39105665)
(0 -0 -7.44057753)
(0 -0 -7.42976025)
(0 -0 -6.90958343)
(0 -0 -6.35272113)
(0 -0 -5.88829949)
(0 -0 -5.54481984)
(0 -0 -5.32085753)
(0 -0 -5.20917538)
(0 -0 -5.20513706)
(0 -0 -5.30915428)
(0 -0 -5.52684105)
(0 -0 -5.86689544)
(0 -0 -6.33298848)
(0 -0 -6.89947798)
(0 -0 -7.43841624)
(0 -0 -7.46895734)
(0 -0 -5.41714978)
(0 -0 2.61856008)
(0 -0 -14.0725103)
(0 -0 -16.3742619)
(0 -0 -13.6227995)
(0 -0 -10.8198515)
(0 -0 -8.91416205)
(0 -0 -7.6381588)
(0 -0 -6.77651126)
(0 -0 -6.21020498)
(0 -0 -5.8657147)
(0 -0 -5.7003366)
(0 -0 -5.69481791)
(0 -0 -5.84897184)
(0 -0 -6.18174528)
(0 -0 -6.73584403)
(0 -0 -7.58562656)
(0 -0 -8.85226241)
(0 -0 -10.7546112)
(0 -0 -13.5665675)
(0 -0 -16.3400212)
(0 -0 -14.0490603)
)
;

boundaryField
{
    top
    {
        type            calculated;
        value           nonuniform List<vector> 
20
(
(0 -0 -25.0773522)
(0 -0 -24.5041776)
(0 -0 -18.0786562)
(0 -0 -13.0645383)
(0 -0 -10.1381821)
(0 -0 -8.37152107)
(0 -0 -7.25490561)
(0 -0 -6.55351576)
(0 -0 -6.13964521)
(0 -0 -5.94480825)
(0 -0 -5.93952763)
(0 -0 -6.12329349)
(0 -0 -6.52454813)
(0 -0 -7.21085908)
(0 -0 -8.30975464)
(0 -0 -10.0572368)
(0 -0 -12.9659604)
(0 -0 -17.9769843)
(0 -0 -24.432587)
(0 -0 -25.0365743)
)
;
    }
    left
    {
        type            calculated;
        value           nonuniform List<vector> 
20
(
(0 -0 -0.0121577538)
(0 -0 -3.928684e-05)
(0 -0 0.049699975)
(0 -0 0.142373079)
(0 -0 0.275552169)
(0 -0 0.447202565)
(0 -0 0.657559687)
(0 -0 0.909284796)
(0 -0 1.20742722)
(0 -0 1.55967812)
(0 -0 1.97732313)
(0 -0 2.47743891)
(0 -0 3.08715809)
(0 -0 3.85040106)
(0 -0 4.83424903)
(0 -0 6.12913696)
(0 -0 7.82781023)
(0 -0 9.65643149)
(0 -0 8.24832096)
(0 -0 -10.9271635)
)
;
    }
    right
    {
        type            calculated;
        value           nonuniform List<vector> 
20
(
(0 -0 -0.0122547249)
(0 -0 -0.00030705743)
(0 -0 0.0490991703)
(0 -0 0.141332127)
(0 -0 0.274034016)
(0 -0 0.445294933)
(0 -0 0.655562041)
(0 -0 0.907810959)
(0 -0 1.20751625)
(0 -0 1.56290529)
(0 -0 1.98589695)
(0 -0 2.49426077)
(0 -0 3.11580056)
(0 -0 3.89488025)
(0 -0 4.89826314)
(0 -0 6.21431616)
(0 -0 7.93028675)
(0 -0 9.75742353)
(0 -0 8.31297204)
(0 -0 -10.8938709)
)
;
    }
    bottom
    {
        type            calculated;
        value           nonuniform List<vector> 
20
(
(0 -0 -0.0118790023)
(0 -0 0.00165045637)
(0 -0 0.0535425701)
(0 -0 0.143033436)
(0 -0 0.256814273)
(0 -0 0.379115236)
(0 -0 0.495324231)
(0 -0 0.593285113)
(0 -0 0.663783548)
(0 -0 0.700664754)
(0 -0 0.700827693)
(0 -0 0.664213056)
(0 -0 0.593825215)
(0 -0 0.495781248)
(0 -0 0.379333937)
(0 -0 0.256743107)
(0 -0 0.142749788)
(0 -0 0.0532153288)
(0 -0 0.00143209982)
(0 -0 -0.0119708783)
)
;
    }
    back0
    {
        type            empty;
    }
    front1
    {
        type            empty;
    }
}


// ************************************************************************* //
