/*--------------------------------*- C++ -*----------------------------------*\
| =========                 |                                                 |
| \\      /  F ield         | OpenFOAM: The Open Source CFD Toolbox           |
|  \\    /   O peration     | Version:  3.0.0                                 |
|   \\  /    A nd           | Web:      www.OpenFOAM.org                      |
|    \\/     M anipulation  |                                                 |
\*---------------------------------------------------------------------------*/
FoamFile
{
    version     2.0;
    format      ascii;
    class       volScalarField;
    location    "5";
    object      p;
}
// * * * * * * * * * * * * * * * * * * * * * * * * * * * * * * * * * * * * * //

dimensions      [0 2 -2 0 0 0 0];

internalField   nonuniform List<scalar> 
400
(
1.0774e-05
-0.0581832
-0.130473
-0.186314
-0.207275
-0.18503
-0.118952
-0.0139512
0.12129
0.275654
0.436642
0.591273
0.726949
0.832391
0.89875
0.921017
0.899834
0.843664
0.77115
0.712963
0.0576615
-0.00212116
-0.0588176
-0.0973447
-0.108541
-0.0865543
-0.0306405
0.0556505
0.165728
0.290942
0.421421
0.546863
0.657314
0.743985
0.800148
0.822165
0.810788
0.771977
0.715086
0.655345
0.134135
0.0513291
-0.0100417
-0.0456341
-0.0547694
-0.0342056
0.0159931
0.0923734
0.189143
0.298876
0.41314
0.523132
0.620327
0.697151
0.747655
0.768282
0.758961
0.723041
0.661419
0.578645
0.204807
0.0902397
0.0138861
-0.0267305
-0.0378576
-0.0185586
0.0298928
0.103399
0.196109
0.300946
0.410044
0.51523
0.608524
0.682661
0.731584
0.751045
0.739736
0.698705
0.621969
0.507343
0.253504
0.105271
0.0109402
-0.0368443
-0.0502529
-0.0304025
0.0200886
0.0961383
0.191404
0.298695
0.410245
0.518034
0.614152
0.691158
0.742429
0.762657
0.749136
0.70085
0.605938
0.457445
0.26864
0.0859385
-0.0271827
-0.0819144
-0.095851
-0.0720776
-0.0147042
0.0699305
0.174668
0.29187
0.413533
0.531459
0.637457
0.72356
0.782222
0.806766
0.792908
0.737627
0.623663
0.440339
0.240187
0.0218406
-0.109795
-0.169459
-0.180313
-0.147598
-0.077181
0.0230562
0.144875
0.279955
0.41985
0.555979
0.679654
0.782125
0.854622
0.888768
0.878386
0.818223
0.685432
0.465892
0.157375
-0.0984689
-0.24734
-0.307988
-0.310041
-0.261462
-0.170309
-0.0463368
0.100929
0.262383
0.429085
0.592041
0.742006
0.869316
0.963733
1.01479
1.01393
0.953022
0.802666
0.544803
0.00681616
-0.289044
-0.452566
-0.507811
-0.492713
-0.418984
-0.297526
-0.140347
0.0416216
0.23854
0.441129
0.640162
0.825982
0.98804
1.11447
1.19227
1.20975
1.15482
0.989537
0.690556
-0.229314
-0.568122
-0.7415
-0.781385
-0.737162
-0.625915
-0.462279
-0.260888
-0.0340596
0.207917
0.455846
0.700733
0.932923
1.14126
1.31222
1.42984
1.47832
1.43985
1.26462
0.921334
-0.575732
-0.960193
-1.13455
-1.14348
-1.05291
-0.887674
-0.667184
-0.408965
-0.126416
0.170361
0.473042
0.773704
1.0635
1.33128
1.5622
1.73701
1.83461
1.82895
1.65307
1.2626
-1.06818
-1.4991
-1.65784
-1.61107
-1.44925
-1.20808
-0.912798
-0.583665
-0.234341
0.126414
0.492434
0.858193
1.21695
1.55881
1.86839
2.12328
2.29604
2.34903
2.18979
1.7514
-1.76129
-2.23296
-2.34474
-2.20256
-1.93335
-1.5873
-1.19577
-0.78074
-0.354393
0.0777551
0.513605
0.951935
1.39007
1.82132
2.23163
2.59653
2.88184
3.03456
2.9245
2.44448
-2.7449
-3.23206
-3.23655
-2.93506
-2.50659
-2.01828
-1.50608
-0.990684
-0.479643
0.0276809
0.535855
1.05046
1.57556
2.11067
2.64643
3.15945
3.61045
3.9285
3.92978
3.43486
-4.17748
-4.60039
-4.37987
-3.81687
-3.15677
-2.4807
-1.82283
-1.19619
-0.598347
-0.0184749
0.557835
1.14586
1.75963
2.40908
3.09505
3.80198
4.49208
5.07954
5.3126
4.88572
-6.34324
-6.48581
-5.81651
-4.83466
-3.84763
-2.93385
-2.11034
-1.37033
-0.693361
-0.0534164
0.577027
1.22568
1.91984
2.68495
3.54034
4.49079
5.51597
6.53203
7.22415
7.08734
-9.75189
-9.07983
-7.56454
-5.94265
-4.51408
-3.31586
-2.31972
-1.47909
-0.744421
-0.0692785
0.589456
1.27359
2.02617
2.89336
3.92417
5.16414
6.63916
8.30659
9.85896
10.5558
-15.5433
-12.6188
-9.51836
-6.98635
-5.0174
-3.52005
-2.37792
-1.47716
-0.72728
-0.0583334
0.587934
1.26606
2.03431
2.96264
4.14155
5.68496
7.70865
10.2996
13.4578
16.4393
-26.6989
-17.2351
-10.9792
-7.32483
-4.90991
-3.25999
-2.11102
-1.26488
-0.591698
-0.00635203
0.554951
1.14983
1.84213
2.71703
3.90465
5.60432
8.08266
11.8138
18.1588
27.7254
-45.35
-21.7257
-10.5196
-6.0112
-3.66545
-2.26806
-1.38775
-0.779802
-0.311079
0.0921328
0.479137
0.89277
1.38229
2.02122
2.94239
4.39197
6.8087
11.4143
22.7344
46.4739
)
;

boundaryField
{
    top
    {
        type            zeroGradient;
    }
    left
    {
        type            zeroGradient;
    }
    right
    {
        type            zeroGradient;
    }
    bottom
    {
        type            zeroGradient;
    }
    back0
    {
        type            empty;
    }
    front1
    {
        type            empty;
    }
}


// ************************************************************************* //
