/*--------------------------------*- C++ -*----------------------------------*\
| =========                 |                                                 |
| \\      /  F ield         | OpenFOAM: The Open Source CFD Toolbox           |
|  \\    /   O peration     | Version:  3.0.1                                 |
|   \\  /    A nd           | Web:      www.OpenFOAM.org                      |
|    \\/     M anipulation  |                                                 |
\*---------------------------------------------------------------------------*/
FoamFile
{
    version     2.0;
    format      ascii;
    class       volVectorField;
    location    "5";
    object      W;
}
// * * * * * * * * * * * * * * * * * * * * * * * * * * * * * * * * * * * * * //

dimensions      [0 1 -1 0 0 0 0];

internalField   nonuniform List<vector> 
400
(
(-3.08205291e-08 7.54867114e-08 0)
(-2.04174584e-07 3.10200808e-07 0)
(-3.34427406e-07 4.26346959e-07 0)
(-2.11306621e-08 1.89754226e-07 0)
(5.64533112e-07 -3.52905613e-07 0)
(9.26793059e-07 -8.49453478e-07 0)
(6.45820545e-07 -8.756673e-07 0)
(-2.37047983e-07 -2.80482847e-07 0)
(-1.16722835e-06 6.35053298e-07 0)
(-1.44432202e-06 1.27448153e-06 0)
(-7.53084455e-07 1.15240283e-06 0)
(5.49591091e-07 2.60962596e-07 0)
(1.63358984e-06 -8.81366587e-07 0)
(1.75592675e-06 -1.55115879e-06 0)
(7.75721326e-07 -1.29469118e-06 0)
(-7.54510583e-07 -2.29481181e-07 0)
(-1.9797109e-06 1.03175758e-06 0)
(-2.32882337e-06 1.78603102e-06 0)
(-1.83609121e-06 1.6797995e-06 0)
(-6.37617177e-07 7.42983569e-07 0)
(1.5124091e-07 -3.13750221e-08 0)
(-4.63702377e-09 4.56984037e-07 0)
(-6.17484566e-07 9.59905277e-07 0)
(-8.08870488e-07 8.10544296e-07 0)
(-2.26668167e-07 -1.55365139e-07 0)
(7.97513332e-07 -1.40810383e-06 0)
(1.47264344e-06 -2.00802739e-06 0)
(1.15138319e-06 -1.30694876e-06 0)
(-1.11400529e-07 4.62373139e-07 0)
(-1.51087147e-06 2.21791047e-06 0)
(-2.03519115e-06 2.72796471e-06 0)
(-1.21184697e-06 1.49818018e-06 0)
(5.08979146e-07 -8.1000571e-07 0)
(2.03350042e-06 -2.76306158e-06 0)
(2.3601402e-06 -3.09500965e-06 0)
(1.22811779e-06 -1.55394636e-06 0)
(-7.68783685e-07 9.38260787e-07 0)
(-2.62027239e-06 2.95169062e-06 0)
(-3.27889743e-06 3.46730073e-06 0)
(-1.53134483e-06 1.98794418e-06 0)
(4.69110005e-07 -3.98091265e-07 0)
(6.96354717e-07 -1.32127964e-07 0)
(-1.51124404e-07 7.00715179e-07 0)
(-1.14330088e-06 1.31116054e-06 0)
(-1.39122151e-06 1.05224419e-06 0)
(-5.19214028e-07 -1.54125067e-07 0)
(1.00108494e-06 -1.60094359e-06 0)
(2.08568535e-06 -2.21560217e-06 0)
(1.82458785e-06 -1.37028063e-06 0)
(2.1970602e-07 5.57074429e-07 0)
(-1.72452523e-06 2.3467752e-06 0)
(-2.66943464e-06 2.7553607e-06 0)
(-1.89255167e-06 1.40664646e-06 0)
(1.76778606e-07 -9.0202666e-07 0)
(2.21915667e-06 -2.71847356e-06 0)
(2.88391222e-06 -2.91828611e-06 0)
(1.65320127e-06 -1.43667926e-06 0)
(-8.06181415e-07 8.11322188e-07 0)
(-2.71499946e-06 2.58848106e-06 0)
(-1.58456417e-06 2.30456042e-06 0)
(6.04492532e-07 -4.73587395e-07 0)
(1.28670649e-06 -8.28279208e-07 0)
(8.18589005e-07 -2.64424062e-07 0)
(-4.68791084e-07 8.93522711e-07 0)
(-1.71446559e-06 1.79544018e-06 0)
(-1.89952326e-06 1.58186218e-06 0)
(-6.29974285e-07 1.21042448e-07 0)
(1.3788656e-06 -1.73441944e-06 0)
(2.71270704e-06 -2.67980248e-06 0)
(2.29180837e-06 -1.9119493e-06 0)
(2.32505335e-07 2.16461264e-07 0)
(-2.14810047e-06 2.36399815e-06 0)
(-3.22301135e-06 3.10174318e-06 0)
(-2.2058221e-06 1.90697939e-06 0)
(2.64781494e-07 -4.69726837e-07 0)
(2.52367768e-06 -2.52442411e-06 0)
(3.0085203e-06 -3.00910068e-06 0)
(1.41089749e-06 -1.67044188e-06 0)
(-7.73423615e-07 6.36637758e-07 0)
(-8.63044776e-07 1.75791104e-06 0)
(3.23458821e-07 -4.69601196e-08 0)
(1.12147363e-06 -9.78969654e-07 0)
(1.56035959e-06 -1.31686318e-06 0)
(9.03001056e-07 -4.60091103e-07 0)
(-7.19739395e-07 1.15758471e-06 0)
(-2.22089545e-06 2.37335034e-06 0)
(-2.33550692e-06 2.11481295e-06 0)
(-7.09057127e-07 2.84831219e-07 0)
(1.68210221e-06 -2.02507708e-06 0)
(3.16095341e-06 -3.23243487e-06 0)
(2.57722499e-06 -2.39717036e-06 0)
(2.02997059e-07 5.0656182e-08 0)
(-2.3963946e-06 2.5515131e-06 0)
(-3.44714775e-06 3.47509424e-06 0)
(-2.23364712e-06 2.24257305e-06 0)
(3.6774747e-07 -2.86207524e-07 0)
(2.51122263e-06 -2.4207532e-06 0)
(2.80137777e-06 -2.79210184e-06 0)
(1.48408186e-06 -1.29376366e-06 0)
(2.44721704e-07 4.74976714e-07 0)
(-3.12899673e-07 6.51768918e-07 0)
(2.10732743e-08 -3.02087372e-07 0)
(1.33162713e-06 -1.60043427e-06 0)
(2.00424213e-06 -1.86265201e-06 0)
(1.11941528e-06 -6.46034398e-07 0)
(-9.4047802e-07 1.40951103e-06 0)
(-2.71653795e-06 2.88264265e-06 0)
(-2.76102996e-06 2.5610875e-06 0)
(-8.08302332e-07 4.19459687e-07 0)
(1.91304248e-06 -2.23057343e-06 0)
(3.51017761e-06 -3.60218285e-06 0)
(2.80127715e-06 -2.70174529e-06 0)
(2.09453281e-07 -6.71135068e-08 0)
(-2.50346089e-06 2.58150621e-06 0)
(-3.48819673e-06 3.53803473e-06 0)
(-2.14059729e-06 2.29531611e-06 0)
(4.81165626e-07 -1.3904026e-07 0)
(2.52821845e-06 -2.04223285e-06 0)
(2.75037849e-06 -2.26309663e-06 0)
(1.1120027e-06 -9.12966838e-07 0)
(-9.14808374e-07 1.08583377e-06 0)
(-1.43703356e-06 8.38765833e-07 0)
(2.47176335e-08 -6.83172635e-07 0)
(1.87720028e-06 -2.1436601e-06 0)
(2.55307181e-06 -2.35580741e-06 0)
(1.30944018e-06 -8.47927276e-07 0)
(-1.17987569e-06 1.58905411e-06 0)
(-3.16959189e-06 3.30054838e-06 0)
(-3.11195738e-06 2.95617224e-06 0)
(-8.6898185e-07 5.97474394e-07 0)
(2.09588816e-06 -2.29231512e-06 0)
(3.73325381e-06 -3.79159135e-06 0)
(2.89212277e-06 -2.89509437e-06 0)
(1.70246767e-07 -2.25666025e-07 0)
(-2.51096832e-06 2.42140836e-06 0)
(-3.30882831e-06 3.3661781e-06 0)
(-1.80274085e-06 2.20470482e-06 0)
(7.49920709e-07 -4.5021474e-08 0)
(2.29546959e-06 -1.80094523e-06 0)
(1.24969319e-06 -1.63013251e-06 0)
(-1.01412421e-06 8.08281441e-07 0)
(-2.22225934e-06 1.60640324e-06 0)
(-1.59785612e-06 9.55062239e-07 0)
(3.65187114e-07 -8.41275331e-07 0)
(2.41440824e-06 -2.57963297e-06 0)
(3.00210158e-06 -2.82614744e-06 0)
(1.43348607e-06 -1.07377e-06 0)
(-1.38923539e-06 1.6952471e-06 0)
(-3.50614557e-06 3.61403411e-06 0)
(-3.33431909e-06 3.27218715e-06 0)
(-8.84938245e-07 7.82572518e-07 0)
(2.18791713e-06 -2.24327741e-06 0)
(3.76757654e-06 -3.81343397e-06 0)
(2.81291914e-06 -2.95237431e-06 0)
(1.0734274e-07 -3.55179466e-07 0)
(-2.35075319e-06 2.16686907e-06 0)
(-2.87392733e-06 3.00790622e-06 0)
(-1.37771568e-06 1.83491067e-06 0)
(4.95577364e-07 -2.91596446e-07 0)
(6.29075904e-07 -1.30206495e-06 0)
(-4.32462188e-07 -1.37987307e-07 0)
(-1.60778427e-06 1.31049759e-06 0)
(-2.37302869e-06 2.16413706e-06 0)
(-1.6333802e-06 1.29601921e-06 0)
(5.67296453e-07 -9.22228796e-07 0)
(2.81245139e-06 -2.97121645e-06 0)
(3.34018659e-06 -3.24374252e-06 0)
(1.52049394e-06 -1.29343373e-06 0)
(-1.52762723e-06 1.7182991e-06 0)
(-3.69136526e-06 3.77920471e-06 0)
(-3.41615752e-06 3.45613485e-06 0)
(-8.69609306e-07 9.37747117e-07 0)
(2.16939965e-06 -2.08952947e-06 0)
(3.61692494e-06 -3.64212417e-06 0)
(2.60390715e-06 -2.82996984e-06 0)
(6.10753989e-08 -4.2188507e-07 0)
(-2.08416865e-06 1.80180421e-06 0)
(-2.48703904e-06 2.3870918e-06 0)
(-1.43205054e-06 1.23619911e-06 0)
(-3.06545812e-07 -2.24559017e-07 0)
(5.25760765e-07 -1.16476821e-06 0)
(1.95854982e-07 -1.24202454e-09 0)
(-1.60382116e-06 1.96396874e-06 0)
(-2.7288459e-06 2.759672e-06 0)
(-1.85379645e-06 1.58438212e-06 0)
(6.80287544e-07 -9.88288154e-07 0)
(3.10854273e-06 -3.25788201e-06 0)
(3.57012977e-06 -3.54994233e-06 0)
(1.56920054e-06 -1.48815578e-06 0)
(-1.58626316e-06 1.64319846e-06 0)
(-3.7140756e-06 3.76728196e-06 0)
(-3.35300339e-06 3.48349704e-06 0)
(-8.2016892e-07 1.05013074e-06 0)
(2.05703191e-06 -1.83774817e-06 0)
(3.31544102e-06 -3.29265254e-06 0)
(2.28069478e-06 -2.56549696e-06 0)
(-5.05406463e-08 -4.76247722e-07 0)
(-1.94692252e-06 1.3570561e-06 0)
(-2.27186856e-06 1.80395879e-06 0)
(-9.48782065e-07 8.47380974e-07 0)
(1.23593095e-06 -1.52258185e-06 0)
(2.06616626e-06 -1.48071978e-06 0)
(3.38737803e-07 3.42873108e-07 0)
(-2.0545624e-06 2.39269957e-06 0)
(-3.18220387e-06 3.15633193e-06 0)
(-2.02692866e-06 1.81679573e-06 0)
(7.77101117e-07 -9.73356779e-07 0)
(3.28450872e-06 -3.38622433e-06 0)
(3.66050898e-06 -3.71385944e-06 0)
(1.56698137e-06 -1.6434627e-06 0)
(-1.5631462e-06 1.47564958e-06 0)
(-3.57178725e-06 3.58081017e-06 0)
(-3.14606516e-06 3.35269827e-06 0)
(-7.33614366e-07 1.10449082e-06 0)
(1.86289329e-06 -1.53004086e-06 0)
(2.86766408e-06 -2.83522098e-06 0)
(1.81084934e-06 -2.21288511e-06 0)
(-2.62367075e-07 -4.25672399e-07 0)
(-1.61827019e-06 1.15163703e-06 0)
(-9.32264482e-07 1.23655412e-06 0)
(1.1837225e-06 -8.64399215e-07 0)
(2.7082197e-06 -2.05239276e-06 0)
(2.18591449e-06 -1.63646598e-06 0)
(3.27509672e-08 3.21861328e-07 0)
(-2.43201995e-06 2.58336677e-06 0)
(-3.44596672e-06 3.437355e-06 0)
(-2.09311609e-06 2.03011255e-06 0)
(8.2599142e-07 -8.67599826e-07 0)
(3.30312072e-06 -3.34561056e-06 0)
(3.59587971e-06 -3.71797796e-06 0)
(1.51304954e-06 -1.73712615e-06 0)
(-1.46158978e-06 1.24032626e-06 0)
(-3.27995769e-06 3.24179714e-06 0)
(-2.8187591e-06 3.07129075e-06 0)
(-6.29008825e-07 1.07966394e-06 0)
(1.5845798e-06 -1.21511316e-06 0)
(2.31048149e-06 -2.30063201e-06 0)
(1.35097623e-06 -1.69429846e-06 0)
(-7.79635162e-08 -1.3130068e-07 0)
(-3.54805367e-07 7.97873835e-07 0)
(3.54313574e-07 4.43453835e-07 0)
(1.59853914e-06 -1.21964063e-06 0)
(2.64654367e-06 -2.56295052e-06 0)
(2.13831588e-06 -2.04386946e-06 0)
(-6.91383943e-08 1.96165049e-07 0)
(-2.58043402e-06 2.67098848e-06 0)
(-3.52557586e-06 3.59131035e-06 0)
(-2.08943568e-06 2.18523989e-06 0)
(8.05365158e-07 -6.91893966e-07 0)
(3.16417518e-06 -3.13882526e-06 0)
(3.38594861e-06 -3.55403722e-06 0)
(1.40963876e-06 -1.75083332e-06 0)
(-1.30032986e-06 9.65836799e-07 0)
(-2.87874744e-06 2.78265817e-06 0)
(-2.41529418e-06 2.66245629e-06 0)
(-5.19116498e-07 9.83355478e-07 0)
(1.29465288e-06 -8.85444004e-07 0)
(1.86816334e-06 -1.67260366e-06 0)
(1.24511536e-06 -1.09935119e-06 0)
(3.37189894e-07 -4.32111413e-08 0)
(-7.21475108e-07 1.53002504e-06 0)
(-5.78187487e-07 5.11687333e-07 0)
(1.35864193e-06 -1.72482644e-06 0)
(2.81134504e-06 -3.01160396e-06 0)
(2.28186408e-06 -2.31155517e-06 0)
(-5.66777111e-08 7.15767112e-08 0)
(-2.57975061e-06 2.61098726e-06 0)
(-3.45259374e-06 3.56990506e-06 0)
(-2.01763285e-06 2.25545429e-06 0)
(7.28686649e-07 -4.66873614e-07 0)
(2.88861287e-06 -2.78904198e-06 0)
(3.04817338e-06 -3.24029428e-06 0)
(1.25545165e-06 -1.68355218e-06 0)
(-1.10830943e-06 6.80726576e-07 0)
(-2.41308132e-06 2.25463684e-06 0)
(-1.95771896e-06 2.18555275e-06 0)
(-3.49617543e-07 8.59021565e-07 0)
(1.14083524e-06 -5.7609527e-07 0)
(1.55962013e-06 -1.16259234e-06 0)
(6.92497655e-07 -6.64289845e-07 0)
(-1.32176424e-06 1.62378822e-06 0)
(-2.36697593e-06 1.94320167e-06 0)
(-8.10713307e-07 3.11467188e-07 0)
(1.60772135e-06 -1.88214387e-06 0)
(3.0165284e-06 -3.13287427e-06 0)
(2.33489434e-06 -2.43488092e-06 0)
(-3.21878586e-08 -8.94971694e-08 0)
(-2.44374439e-06 2.39868179e-06 0)
(-3.22533489e-06 3.37767794e-06 0)
(-1.87658104e-06 2.22398859e-06 0)
(6.07494493e-07 -2.36999618e-07 0)
(2.50306671e-06 -2.35201807e-06 0)
(2.61117346e-06 -2.81699596e-06 0)
(1.06090212e-06 -1.53750471e-06 0)
(-8.99712759e-07 4.27486882e-07 0)
(-1.90206851e-06 1.72980965e-06 0)
(-1.44194701e-06 1.69741647e-06 0)
(-1.20113614e-07 6.6393106e-07 0)
(8.77923029e-07 -4.60479782e-07 0)
(5.59926064e-07 -7.12984251e-07 0)
(-1.04447744e-06 6.14381725e-07 0)
(-2.57027579e-06 2.02830938e-06 0)
(-2.37605686e-06 2.06481366e-06 0)
(-5.77352108e-07 4.78667819e-07 0)
(1.73654783e-06 -1.73659245e-06 0)
(2.98808915e-06 -3.02763758e-06 0)
(2.25163146e-06 -2.41693153e-06 0)
(1.03452507e-08 -2.45671958e-07 0)
(-2.19366031e-06 2.06177903e-06 0)
(-2.88343846e-06 3.00733725e-06 0)
(-1.68557477e-06 2.05424562e-06 0)
(4.64400035e-07 -5.11810132e-08 0)
(2.06159161e-06 -1.87014359e-06 0)
(2.12985763e-06 -2.30423645e-06 0)
(8.55157897e-07 -1.30182192e-06 0)
(-6.78441587e-07 2.42491108e-07 0)
(-1.384541e-06 1.23945206e-06 0)
(-9.80971079e-07 1.17460879e-06 0)
(-1.33021977e-07 3.52062558e-07 0)
(1.38421099e-07 -3.0800001e-07 0)
(-9.69278127e-08 -8.52812174e-07 0)
(-1.10426182e-06 6.40760145e-07 0)
(-2.30453876e-06 2.22941985e-06 0)
(-2.17410245e-06 2.2851155e-06 0)
(-4.80976161e-07 7.26319715e-07 0)
(1.66444817e-06 -1.40974633e-06 0)
(2.75241734e-06 -2.69207229e-06 0)
(2.02825749e-06 -2.26634972e-06 0)
(1.84153491e-08 -4.36139708e-07 0)
(-1.88807753e-06 1.56988051e-06 0)
(-2.44806323e-06 2.46731458e-06 0)
(-1.41675099e-06 1.78730749e-06 0)
(3.5794792e-07 1.32232162e-07 0)
(1.62356469e-06 -1.33114236e-06 0)
(1.64113646e-06 -1.72462678e-06 0)
(6.39809594e-07 -1.01661889e-06 0)
(-4.93855245e-07 8.75600398e-08 0)
(-9.87762015e-07 7.64405217e-07 0)
(-7.44095281e-07 6.73203446e-07 0)
(-2.29335985e-07 1.40697434e-07 0)
(8.71313355e-07 -1.84793919e-06 0)
(1.00051337e-06 -1.30827265e-06 0)
(-7.02026429e-07 7.21151552e-07 0)
(-2.0878586e-06 2.29436898e-06 0)
(-1.97145707e-06 2.41891559e-06 0)
(-4.63306173e-07 1.02172749e-06 0)
(1.3590567e-06 -1.00602758e-06 0)
(2.24965627e-06 -2.35963054e-06 0)
(1.65431231e-06 -2.20301482e-06 0)
(5.11791873e-08 -7.20256228e-07 0)
(-1.43760439e-06 1.05598847e-06 0)
(-1.85881905e-06 1.99136879e-06 0)
(-1.06885489e-06 1.61573792e-06 0)
(2.47057556e-07 3.65829103e-07 0)
(1.14720465e-06 -8.25138316e-07 0)
(1.12660815e-06 -1.23478171e-06 0)
(4.01395615e-07 -8.10209093e-07 0)
(-3.85442509e-07 -6.80730236e-08 0)
(-6.85605889e-07 3.95555269e-07 0)
(-3.26746576e-07 3.00259281e-07 0)
(1.25651602e-06 -1.82420087e-06 0)
(2.36920635e-06 -2.36781114e-06 0)
(1.29799204e-06 -1.02096978e-06 0)
(-5.14984605e-07 9.54401157e-07 0)
(-1.81127366e-06 2.34585787e-06 0)
(-1.84676917e-06 2.29137634e-06 0)
(-6.91543248e-07 8.28052328e-07 0)
(8.3082202e-07 -1.09308794e-06 0)
(1.71395756e-06 -2.2533961e-06 0)
(1.44438209e-06 -1.98431715e-06 0)
(3.10840109e-07 -5.75782326e-07 0)
(-8.56495566e-07 9.87943026e-07 0)
(-1.30391459e-06 1.74001448e-06 0)
(-8.62796659e-07 1.36327133e-06 0)
(1.06523013e-08 3.07243345e-07 0)
(6.4737733e-07 -6.36833698e-07 0)
(6.73097827e-07 -9.31346551e-07 0)
(2.22383327e-07 -5.9909121e-07 0)
(-2.23378005e-07 -7.06782854e-08 0)
(-1.82756295e-07 1.64460646e-07 0)
(7.47795476e-07 -7.26686811e-07 0)
(1.80603121e-06 -1.22246321e-06 0)
(1.76265968e-06 -8.50119713e-07 0)
(8.21806664e-07 2.00986255e-08 0)
(-4.9477743e-07 8.67238294e-07 0)
(-1.41273442e-06 1.17026648e-06 0)
(-1.40266204e-06 7.4578414e-07 0)
(-5.36261446e-07 -1.19498181e-07 0)
(5.79964154e-07 -8.67224492e-07 0)
(1.22895707e-06 -1.04453975e-06 0)
(1.0614462e-06 -5.92859599e-07 0)
(2.92069791e-07 1.4519704e-07 0)
(-5.06620756e-07 6.87197609e-07 0)
(-8.34582214e-07 7.41804013e-07 0)
(-5.91119059e-07 3.71961706e-07 0)
(-7.5143114e-08 -1.05101346e-07 0)
(2.98729969e-07 -3.76802277e-07 0)
(3.20542043e-07 -3.433409e-07 0)
(1.0917528e-07 -1.31657922e-07 0)
(-2.72795397e-09 3.10259721e-08 0)
)
;

boundaryField
{
    top
    {
        type            calculated;
        value           uniform (-5.55111512e-15 0 0);
    }
    left
    {
        type            calculated;
        value           uniform (0 0 0);
    }
    right
    {
        type            calculated;
        value           uniform (0 0 0);
    }
    bottom
    {
        type            calculated;
        value           uniform (0 0 0);
    }
    back0
    {
        type            empty;
    }
    front1
    {
        type            empty;
    }
}


// ************************************************************************* //
