/*--------------------------------*- C++ -*----------------------------------*\
| =========                 |                                                 |
| \\      /  F ield         | OpenFOAM: The Open Source CFD Toolbox           |
|  \\    /   O peration     | Version:  3.0.1                                 |
|   \\  /    A nd           | Web:      www.OpenFOAM.org                      |
|    \\/     M anipulation  |                                                 |
\*---------------------------------------------------------------------------*/
FoamFile
{
    version     2.0;
    format      ascii;
    class       surfaceScalarField;
    location    "4";
    object      phi;
}
// * * * * * * * * * * * * * * * * * * * * * * * * * * * * * * * * * * * * * //

dimensions      [0 3 -1 0 0 0 0];

internalField   nonuniform List<scalar> 
760
(
1.48311602e-05
-1.48425219e-05
-2.06681985e-05
3.54994099e-05
-0.000112521537
9.18534918e-05
-0.000244614568
0.000132093203
-0.000396820082
0.000152205558
-0.00054970948
0.000152889223
-0.000686467034
0.00013675723
-0.000793771994
0.0001073047
-0.000862077179
6.83052093e-05
-0.000885638335
2.35615165e-05
-0.000862489365
-2.31484566e-05
-0.000794446375
-6.80426395e-05
-0.000687159029
-0.000107287394
-0.000550173203
-0.000136986263
-0.000396907684
-0.00015326608
-0.00024434257
-0.000152565449
-0.000112069022
-0.000132273447
-2.02879e-05
-9.17806295e-05
1.49799423e-05
-3.52672189e-05
1.4980354e-05
-3.27960804e-05
1.79535615e-05
-0.00017727284
0.000179976068
-0.00043066242
0.000345243037
-0.000762838615
0.000464269546
-0.00113361809
0.000522985349
-0.00150161765
0.000520889077
-0.00182937257
0.000464512205
-0.00208620201
0.000364133885
-0.00224961357
0.000231716355
-0.00230590229
7.98499679e-05
-0.00225037891
-7.86717407e-05
-0.00208745836
-0.000230962732
-0.00183067127
-0.000364073907
-0.00150250409
-0.000465153106
-0.0011338112
-0.00052195906
-0.000762352207
-0.000524024915
-0.000429806503
-0.000464819736
-0.000176505404
-0.000345082089
-3.24533121e-05
-0.00017931926
-1.74723858e-05
-9.02050877e-05
0.00010815876
-0.000352895158
0.000442666
-0.000760601491
0.000752949147
-0.00126724018
0.000970908144
-0.00181761894
0.00107336432
-0.0023558192
0.00105908979
-0.00283112925
0.000939822703
-0.00320177434
0.000734779086
-0.00343696484
0.000466906511
-0.00351787682
0.000160761352
-0.00343806521
-0.000158483793
-0.00320361287
-0.000465415024
-0.00283310506
-0.000734581162
-0.00235730373
-0.000940953684
-0.00181818842
-0.00106107387
-0.0012668465
-0.00107536689
-0.000759602254
-0.000972064546
-0.000351894822
-0.000752790198
-8.97165942e-05
-0.000441497829
-0.000107188575
-0.000142725271
0.000250884245
-0.000521155701
0.000821096414
-0.00107877749
0.00131057068
-0.00174927079
0.0016414011
-0.00246204278
0.00178613619
-0.00314895848
0.00174600578
-0.00374966751
0.00154053235
-0.00421508507
0.00120019719
-0.00450930154
0.000761123084
-0.00461045067
0.000261910034
-0.00451104011
-0.000257895085
-0.0042180761
-0.000758379561
-0.00375308535
-0.00119957184
-0.00315189516
-0.00154214322
-0.00246380692
-0.00174916127
-0.0017496347
-0.0017895386
-0.00107807117
-0.00164362818
-0.00052012693
-0.00131073499
-0.000142137072
-0.000819488233
-0.000249325609
-0.000191108197
0.000441992643
-0.000682218974
0.0013122074
-0.00138732001
0.00201567165
-0.00221710355
0.00247118428
-0.00308417176
0.00265320395
-0.00390865315
0.00257048699
-0.00462240477
0.00225428431
-0.00517146463
0.00174925777
-0.00551708653
0.00110674564
-0.00563593966
0.000380763308
-0.00552002219
-0.000373813048
-0.00517665243
-0.00110175013
-0.00462865348
-0.00174757137
-0.00391458257
-0.00225621409
-0.00308860661
-0.00257513658
-0.00221943907
-0.0026587053
-0.00138772929
-0.00247533744
-0.000681573447
-0.00201689089
-0.000190525652
-0.00131053646
-0.000439851587
-0.000238305016
0.000680297682
-0.000842095534
0.00191599828
-0.00169513998
0.00286871638
-0.00268291748
0.0034589617
-0.0036998416
0.00367012758
-0.00465445476
0.00352509956
-0.00547225793
0.00307208725
-0.00609649866
0.00237349889
-0.00648763936
0.00149788717
-0.00662232757
0.000515452267
-0.00649254194
-0.000503598494
-0.00610533274
-0.00148895984
-0.00548329069
-0.00236961429
-0.00466558516
-0.00307392025
-0.00370911829
-0.00353160344
-0.00268907231
-0.00367875064
-0.00169797521
-0.00346643373
-0.000842533205
-0.00287233243
-0.000237931109
-0.00191513864
-0.000677783171
-0.000287378251
0.000967675706
-0.0010078233
0.00263644362
-0.00201201732
0.00387291093
-0.00315754788
0.00460449263
-0.0043195005
0.00483208008
-0.00539549641
0.00460109486
-0.00630668218
0.00398327231
-0.00699609541
0.00306291185
-0.00742581891
0.00192761111
-0.00757414388
0.000663778144
-0.0074335962
-0.000644145337
-0.00701030718
-0.00191224866
-0.00632488069
-0.00305504131
-0.00541459533
-0.00398420651
-0.00433643149
-0.0046097679
-0.00317000795
-0.00484517416
-0.00201911839
-0.00461732269
-0.00101037772
-0.00388107241
-0.000287535287
-0.00263798077
-0.000965318779
-0.000341212695
0.00130888804
-0.0011860694
0.00348130035
-0.00234617525
0.00503301722
-0.00364749853
0.00590581657
-0.00494510426
0.00612968623
-0.006127565
0.00578355544
-0.00711505515
0.00497076174
-0.0078541838
0.0038020397
-0.00831193839
0.00238536539
-0.00847043781
0.000822278017
-0.00832350493
-0.000791077258
-0.00787555445
-0.00236019827
-0.0071429497
-0.00378764584
-0.00615769324
-0.00496946348
-0.00497294331
-0.00579451867
-0.00366927859
-0.00614883946
-0.00235988234
-0.00592671891
-0.00119212043
-0.00504883384
-0.000342355919
-0.00348774478
-0.00130767467
-0.00040266246
0.00171155023
-0.00138288374
0.00446152132
-0.00270314701
0.00635328054
-0.00415277737
0.00735544746
-0.00556708739
0.00754399702
-0.00682952826
0.00704599679
-0.00786487563
0.00600610893
-0.00862889006
0.00456605334
-0.00909798475
0.00285445921
-0.00926099566
0.000985288577
-0.00911404334
-0.000938029123
-0.00865885398
-0.00281538668
-0.00790464479
-0.00454185417
-0.0068735297
-0.00600057834
-0.0056091001
-0.00705894874
-0.0041871328
-0.00757080751
-0.00272616198
-0.00738769023
-0.00139412455
-0.00638087125
-0.000405385427
-0.00447648353
-0.00171305978
-0.000475110519
0.00218666081
-0.00160423025
0.00559064063
-0.00308522776
0.00783427764
-0.00466469037
0.00893491011
-0.00616057384
0.00903988111
-0.0074584417
0.00834386552
-0.00849632042
0.00704398819
-0.00924694399
0.00531667672
-0.00970204047
0.00330955486
-0.0098607547
0.0011440019
-0.00972275569
-0.00107602849
-0.00928598368
-0.00325215827
-0.00854900048
-0.00527883645
-0.00751809652
-0.00703148148
-0.00621927658
-0.00835776845
-0.00471455763
-0.00907552687
-0.00312030266
-0.00898194586
-0.00162256014
-0.00787861418
-0.000480137006
-0.0056189066
-0.00219319638
-0.000563483483
0.0027501447
-0.00185696083
0.00688411774
-0.00349063239
0.00946794859
-0.00516238935
0.0106066665
-0.00667966556
0.0105571574
-0.00794251217
0.00960671282
-0.0089148072
0.00801628416
-0.00959640936
0.00599827946
-0.0100013145
0.00371445982
-0.0101429409
0.00128562746
-0.010025884
-0.00119308625
-0.00964324116
-0.0036348015
-0.0089791864
-0.00594289082
-0.00801728995
-0.00799337708
-0.00675563225
-0.00961942542
-0.00522944068
-0.0106017182
-0.00353999232
-0.0106713946
-0.00188425666
-0.00953435033
-0.000571636535
-0.00693152697
-0.00276483269
-0.000675948104
0.00342609331
-0.00214982707
0.00835799687
-0.00391097475
0.0112290959
-0.00560625135
0.0123019424
-0.00704802766
0.0119989331
-0.00817076129
0.0107294465
-0.00898119916
0.00882672275
-0.00951808163
0.00653516291
-0.0098246042
0.00402098298
-0.00993193685
0.00139295995
-0.0098507903
-0.00127423357
-0.0095687317
-0.00391686095
-0.00905248861
-0.00645913426
-0.00825621199
-0.00878965337
-0.00713822161
-0.0107374151
-0.00568945398
-0.0120504852
-0.00397535274
-0.0123854956
-0.00218751954
-0.0113221838
-0.000688081169
-0.00843096566
-0.00345291391
-0.000826648463
0.00425274208
-0.00249342069
0.0100247696
-0.00432418393
0.0130598593
-0.00592459543
0.0139023535
-0.00714291366
0.0132172505
-0.00797782209
0.0115643543
-0.00849943385
0.00934833455
-0.00879640163
0.00683213142
-0.00894570075
0.00417028307
-0.00899764641
0.00144490621
-0.00896948409
-0.00130239602
-0.00884345467
-0.00404289108
-0.00856804125
-0.00673454845
-0.00806387662
-0.00929381833
-0.00723867626
-0.0115626152
-0.00601823939
-0.0132709215
-0.00440132811
-0.0140024064
-0.00254175571
-0.013181756
-0.000843508621
-0.0101292129
-0.00429642276
-0.00103952342
0.0052922654
-0.00289549011
0.0118807368
-0.00467633761
0.0148407074
-0.00598720085
0.0152132169
-0.00676819846
0.0139982477
-0.00712210025
0.0119182553
-0.00720203339
0.00942826706
-0.00715181655
0.00678191459
-0.00708046898
0.00409893618
-0.00705437491
0.00141881305
-0.0070961265
-0.00126064386
-0.0071843945
-0.00395462317
-0.00725315075
-0.0066657928
-0.00719199011
-0.00935497962
-0.00685341957
-0.011901186
-0.00607860079
-0.0140457401
-0.00475889042
-0.0153221163
-0.0029522727
-0.0149883733
-0.001061465
-0.0120200205
-0.00535788798
-0.00135025198
0.00664251692
-0.00334025636
0.0138707414
-0.00483768101
0.0163381327
-0.0055540479
0.0159295845
-0.00561056872
0.0140547688
-0.00525650298
0.0115641891
-0.00473591687
0.00890768014
-0.00423859859
0.00628459568
-0.00389222452
0.00375256209
-0.00376902876
0.00129561789
-0.0038932726
-0.0011363992
-0.00424393186
-0.00360396338
-0.00475113493
-0.00615858978
-0.00528768988
-0.00881842514
-0.0056613142
-0.0115275622
-0.00562172876
-0.0140853257
-0.00491056672
-0.0160332781
-0.0033987324
-0.0165002073
-0.00137654964
-0.0140422031
-0.0067344377
-0.00179037847
0.0084328949
-0.0037183618
0.0157987245
-0.0045018357
0.0171216069
-0.00418179649
0.0156095461
-0.00317451615
0.0130474891
-0.00189546658
0.0102851398
-0.000655569558
0.00766778274
0.000344295132
0.00528473025
0.000987447632
0.003109409
0.00121449983
0.00106856563
0.00100600278
-0.00092790166
0.000376740972
-0.00297470087
-0.000618093753
-0.00516375459
-0.00186474311
-0.00757177578
-0.00316256879
-0.0102297369
-0.00419629329
-0.0130516016
-0.00454020615
-0.0156893654
-0.00376394196
-0.0172764714
-0.00181751157
-0.0159886332
-0.00855194919
-0.0023076428
0.0107405375
-0.00363211797
0.0171231992
-0.00297442432
0.016463913
-0.00106889401
0.013704016
0.00129962237
0.0106789734
0.00360817706
0.00797658578
0.00556237839
0.00571358166
0.00701811561
0.00382899272
0.0079140465
0.00221347746
0.008227619
0.000754992598
0.00795212794
-0.000652410683
0.00708964846
-0.002112221
0.00565786616
-0.00373197171
0.00371317421
-0.00562708343
0.00139571636
-0.00791227899
-0.0010005661
-0.0106553194
-0.00294595444
-0.0137439774
-0.00363940859
-0.0165830173
-0.00232572298
-0.0173023187
-0.010877672
-0.00251428283
0.0132548205
-0.00191886157
0.0165277775
0.00123204935
0.0133130016
0.00516960669
0.00976645842
0.00890995198
0.0069386284
0.0120477009
0.00483883752
0.0144621922
0.0032990909
0.0161533076
0.0021378776
0.0171566125
0.00121017233
0.0175035782
0.00040802638
0.0172053077
-0.000354140653
0.0162480106
-0.00115492394
0.0145966907
-0.0020806515
0.0122107381
-0.00324113038
0.00908363918
-0.00478517982
0.00532950032
-0.00690118051
0.00135184665
-0.00976632387
-0.00185633303
-0.0133748378
-0.0025026337
-0.0166560181
-0.0133803056
-0.000525870188
0.0137806912
0.00469116576
0.0113107415
0.0111379059
0.00686626106
0.0167191966
0.00418516716
0.021043761
0.00261406377
0.0242217881
0.00166081055
0.0264601189
0.00106076052
0.0279395594
0.000658437552
0.0287868705
0.000362861471
0.0290749924
0.000119904374
0.0288276842
-0.000106832741
0.0280213579
-0.000348597992
0.0265824978
-0.000641791461
0.0243820564
-0.0010406888
0.0212339726
-0.00163709574
0.0169223246
-0.00258953225
0.0113261641
-0.00417016339
0.0048312408
-0.00687991458
-0.000460418998
-0.0113643584
-0.0138407246
0.0137806917
0.0250914336
0.0319576949
0.0361428619
0.0387569252
0.0404177354
0.0414784958
0.0421369335
0.0424997954
0.0426197001
0.0425128675
0.0421642693
0.0415224776
0.0404817886
0.0388446928
0.0362551607
0.0320849975
0.025205083
0.0138407246
)
;

boundaryField
{
    top
    {
        type            calculated;
        value           uniform 0;
    }
    left
    {
        type            calculated;
        value           uniform 0;
    }
    right
    {
        type            calculated;
        value           uniform 0;
    }
    bottom
    {
        type            calculated;
        value           uniform 0;
    }
    back0
    {
        type            empty;
        value           nonuniform 0();
    }
    front1
    {
        type            empty;
        value           nonuniform 0();
    }
}


// ************************************************************************* //
