/*--------------------------------*- C++ -*----------------------------------*\
| =========                 |                                                 |
| \\      /  F ield         | OpenFOAM: The Open Source CFD Toolbox           |
|  \\    /   O peration     | Version:  3.0.1                                 |
|   \\  /    A nd           | Web:      www.OpenFOAM.org                      |
|    \\/     M anipulation  |                                                 |
\*---------------------------------------------------------------------------*/
FoamFile
{
    version     2.0;
    format      ascii;
    class       volVectorField;
    location    "4";
    object      U;
}
// * * * * * * * * * * * * * * * * * * * * * * * * * * * * * * * * * * * * * //

dimensions      [0 1 -1 0 0 0 0];

internalField   nonuniform List<vector> 
400
(
(0.000259062001 -0.000255101803 0)
(0.000163212626 0.000103495935 0)
(-0.00114128582 0.000562925299 0)
(-0.003451636 0.000892679092 0)
(-0.00637456507 0.00105975612 0)
(-0.00950137975 0.00107585685 0)
(-0.012462448 0.000965760025 0)
(-0.0149528217 0.000758486077 0)
(-0.0167424783 0.000482990702 0)
(-0.0176781184 0.000166944518 0)
(-0.0176825171 -0.000162987096 0)
(-0.0167540722 -0.000480342022 0)
(-0.0149673909 -0.000757973781 0)
(-0.0124747344 -0.0009674017 0)
(-0.00950714398 -0.00107880726 0)
(-0.00637237823 -0.00106259388 0)
(-0.00344363072 -0.000894000894 0)
(-0.00113224122 -0.000562113299 0)
(0.000168786008 -0.000101402353 0)
(0.000260556063 0.000256263966 0)
(-6.36491236e-05 -0.000192795979 0)
(-0.00156378097 0.00161123964 0)
(-0.00562132454 0.00360995796 0)
(-0.0116624213 0.00506517939 0)
(-0.0188876931 0.00579892834 0)
(-0.0264616843 0.00581605596 0)
(-0.0335808341 0.00520264066 0)
(-0.0395528817 0.00408407899 0)
(-0.0438411316 0.00260080429 0)
(-0.0460817209 0.000897215647 0)
(-0.0460899856 -0.000881771488 0)
(-0.0438629607 -0.00259069129 0)
(-0.0395804509 -0.00408266241 0)
(-0.0336043391 -0.00520998272 0)
(-0.0264730956 -0.00582871284 0)
(-0.0188840492 -0.00581112669 0)
(-0.0116472939 -0.00507121801 0)
(-0.00560340619 -0.00360722022 0)
(-0.00155191705 -0.00160272065 0)
(-6.01355068e-05 0.00019854312 0)
(-0.000508063745 0.00103301193 0)
(-0.00364516591 0.00566230227 0)
(-0.0104977841 0.0102120649 0)
(-0.0199305169 0.0134777836 0)
(-0.0307793524 0.0150698502 0)
(-0.0419250045 0.0149606063 0)
(-0.0522861799 0.0133219557 0)
(-0.0609227884 0.0104364011 0)
(-0.0671017784 0.00663926099 0)
(-0.0703241077 0.00228747834 0)
(-0.0703359468 -0.00225412562 0)
(-0.0671333918 -0.00661750909 0)
(-0.0609637806 -0.0104336394 0)
(-0.0523232403 -0.0133384747 0)
(-0.0419466751 -0.0149891026 0)
(-0.0307804218 -0.0150978551 0)
(-0.0199143727 -0.0134927182 0)
(-0.0104753204 -0.0102076224 0)
(-0.00362890123 -0.00564387719 0)
(-0.000502885859 -0.00101878718 0)
(-0.00090152898 0.00337413892 0)
(-0.00561471812 0.0121026976 0)
(-0.0152160286 0.0199185624 0)
(-0.0278960275 0.0253348578 0)
(-0.042080657 0.0278175232 0)
(-0.0563930944 0.0273454237 0)
(-0.0695396352 0.0242145199 0)
(-0.0804104941 0.0189084475 0)
(-0.0881486851 0.0120071391 0)
(-0.092174214 0.00413332172 0)
(-0.0921927232 -0.00407342823 0)
(-0.088199019 -0.0119670826 0)
(-0.0804786168 -0.0189011653 0)
(-0.0696069389 -0.0242412088 0)
(-0.0564423203 -0.0273944626 0)
(-0.0421017819 -0.0278680975 0)
(-0.0278901488 -0.025364999 0)
(-0.0151953122 -0.0199157385 0)
(-0.00559611575 -0.0120735452 0)
(-0.000894873838 -0.00334870184 0)
(-0.00124878101 0.00671913839 0)
(-0.00746753537 0.0208066844 0)
(-0.0197752612 0.0325561562 0)
(-0.0356414783 0.0403583034 0)
(-0.0530356829 0.0436522717 0)
(-0.070314824 0.042509434 0)
(-0.0859995392 0.0374148036 0)
(-0.0988570074 0.029103571 0)
(-0.107956645 0.0184400328 0)
(-0.112678267 0.00634466604 0)
(-0.112709206 -0.00624107276 0)
(-0.108042231 -0.0183675579 0)
(-0.0989773775 -0.0290832457 0)
(-0.0861273555 -0.0374502466 0)
(-0.0704227745 -0.0425846735 0)
(-0.053104581 -0.0437362438 0)
(-0.0356666292 -0.0404160523 0)
(-0.0197684202 -0.032564604 0)
(-0.00745105128 -0.0207705783 0)
(-0.00124126929 -0.00668126145 0)
(-0.00158017616 0.0110106937 0)
(-0.00929263685 0.0317466102 0)
(-0.0243212548 0.0481289073 0)
(-0.0433743895 0.0585360578 0)
(-0.0639230283 0.0625112648 0)
(-0.0840449493 0.0603351347 0)
(-0.102093624 0.0527734144 0)
(-0.116751954 0.0408774843 0)
(-0.127060255 0.0258362135 0)
(-0.132395294 0.00888909479 0)
(-0.132446572 -0.00871107183 0)
(-0.127203913 -0.025705413 0)
(-0.116959604 -0.0408271943 0)
(-0.102324859 -0.0528124277 0)
(-0.0842568197 -0.0604436618 0)
(-0.0640811314 -0.0626456843 0)
(-0.0434628879 -0.0586432844 0)
(-0.0243482532 -0.0481684473 0)
(-0.00928635296 -0.0317151745 0)
(-0.00157322427 -0.0109621152 0)
(-0.00192626063 0.0162550703 0)
(-0.0111929074 0.0449648571 0)
(-0.0290279054 0.0666850229 0)
(-0.0513080603 0.0798755889 0)
(-0.07496108 0.0843338606 0)
(-0.0977822865 0.0806969599 0)
(-0.117988303 0.0701286185 0)
(-0.134227491 0.0540740491 0)
(-0.145564333 0.0340861127 0)
(-0.151415624 0.0117325383 0)
(-0.151496508 -0.0114321815 0)
(-0.145793039 -0.0338557757 0)
(-0.134564558 -0.0539652779 0)
(-0.118375866 -0.0701597881 0)
(-0.0981555831 -0.0808461321 0)
(-0.0752630835 -0.0845426666 0)
(-0.0515043905 -0.0800662845 0)
(-0.0291175744 -0.0667897441 0)
(-0.0112092845 -0.0449617439 0)
(-0.001922313 -0.0162027142 0)
(-0.0023158688 0.0225188867 0)
(-0.0132686195 0.060580719 0)
(-0.0340569849 0.0883110862 0)
(-0.0596048744 0.104368554 0)
(-0.0862452984 0.108997319 0)
(-0.111508515 0.103380046 0)
(-0.133533109 0.0892237682 0)
(-0.15100957 0.0684555386 0)
(-0.163100872 0.0430258921 0)
(-0.16932079 0.0148224205 0)
(-0.169440513 -0.0143329532 0)
(-0.163441903 -0.042637407 0)
(-0.151519868 -0.0682455525 0)
(-0.134134142 -0.0892266321 0)
(-0.112108177 -0.103575268 0)
(-0.0867560146 -0.109310709 0)
(-0.0599644206 -0.104690493 0)
(-0.0342470638 -0.0885331184 0)
(-0.013324928 -0.0606460651 0)
(-0.00231859096 -0.0224774421 0)
(-0.00277919595 0.0299257491 0)
(-0.0156192338 0.0787852784 0)
(-0.0395457761 0.113109757 0)
(-0.0683430325 0.131941965 0)
(-0.0976948781 0.136245339 0)
(-0.124920467 0.127998127 0)
(-0.148185631 0.109628233 0)
(-0.16634106 0.0836380108 0)
(-0.178753051 0.0523950478 0)
(-0.185108345 0.01807188 0)
(-0.185273821 -0.0173092898 0)
(-0.179227548 -0.0517729571 0)
(-0.167060685 -0.0832686601 0)
(-0.149050922 -0.109570396 0)
(-0.125809059 -0.128239208 0)
(-0.0984818566 -0.136696935 0)
(-0.0689278891 -0.132456225 0)
(-0.0398814908 -0.1135217 0)
(-0.015737593 -0.0789798332 0)
(-0.00279365548 -0.0299204516 0)
(-0.00335558672 0.0386598253 0)
(-0.0183589899 0.0998286262 0)
(-0.0456106502 0.141149003 0)
(-0.0774898493 0.162368231 0)
(-0.108991006 0.16557407 0)
(-0.137340476 0.153875599 0)
(-0.160905732 0.130632483 0)
(-0.178870093 0.0990104124 0)
(-0.190943373 0.0617852062 0)
(-0.197080765 0.0213406299 0)
(-0.197293206 -0.0202106505 0)
(-0.191556684 -0.060842206 0)
(-0.179812911 -0.0984096818 0)
(-0.162062648 -0.130467253 0)
(-0.138561425 -0.154151358 0)
(-0.110110866 -0.166194676 0)
(-0.0783600727 -0.163144863 0)
(-0.0461409248 -0.141843438 0)
(-0.0185657621 -0.100236635 0)
(-0.00338841087 -0.0387292518 0)
(-0.00410768924 0.0489852908 0)
(-0.0216449952 0.124008515 0)
(-0.0523542015 0.172385466 0)
(-0.0868591349 0.195134297 0)
(-0.119481321 0.196079175 0)
(-0.147583899 0.179902917 0)
(-0.170007081 0.15113052 0)
(-0.186501466 0.113650939 0)
(-0.197291771 0.0705900672 0)
(-0.202708786 0.0244160487 0)
(-0.202959328 -0.0228287278 0)
(-0.198020715 -0.0692386096 0)
(-0.187639352 -0.11273911 0)
(-0.1714352 -0.150796258 0)
(-0.149136081 -0.180184117 0)
(-0.120957495 -0.196885886 0)
(-0.0880571934 -0.196241906 0)
(-0.0531240564 -0.173469177 0)
(-0.0219690761 -0.124737848 0)
(-0.00416716662 -0.0491838273 0)
(-0.00514671845 0.0612936543 0)
(-0.0257192119 0.151656864 0)
(-0.059857326 0.206540856 0)
(-0.0960163548 0.229247356 0)
(-0.128010546 0.226252066 0)
(-0.153752949 0.204366567 0)
(-0.172950789 0.169499919 0)
(-0.186211835 0.126253696 0)
(-0.19445667 0.0779668227 0)
(-0.198488965 0.0269985601 0)
(-0.198753972 -0.0248921141 0)
(-0.195235532 -0.076139288 0)
(-0.187451795 -0.124956363 0)
(-0.17455173 -0.168923179 0)
(-0.155556654 -0.204598295 0)
(-0.129800729 -0.227232064 0)
(-0.0975421186 -0.230734034 0)
(-0.0608942968 -0.208120374 0)
(-0.0261884401 -0.152833975 0)
(-0.00524278205 -0.061693098 0)
(-0.00667695396 0.0761991922 0)
(-0.0309618066 0.183102314 0)
(-0.0681131673 0.24288128 0)
(-0.104061114 0.262937302 0)
(-0.132609117 0.253713733 0)
(-0.15291132 0.224767314 0)
(-0.166064279 0.183506313 0)
(-0.173836901 0.135093407 0)
(-0.177984692 0.082829187 0)
(-0.179830218 0.0286992337 0)
(-0.180068005 -0.0260728554 0)
(-0.178694665 -0.0805072304 0)
(-0.175001634 -0.133363402 0)
(-0.167632228 -0.182612019 0)
(-0.154769968 -0.224863991 0)
(-0.134563335 -0.254804104 0)
(-0.105835092 -0.264801056 0)
(-0.0694045829 -0.245035409 0)
(-0.031595996 -0.18485817 0)
(-0.00682084333 -0.07688858 0)
(-0.00906576488 0.0947026443 0)
(-0.0379246452 0.218538328 0)
(-0.076791381 0.279804164 0)
(-0.109143726 0.293208664 0)
(-0.129924722 0.274900161 0)
(-0.140578599 0.237679781 0)
(-0.144175987 0.190296541 0)
(-0.14385823 0.138083677 0)
(-0.142218397 0.0839087372 0)
(-0.141028903 0.0290636802 0)
(-0.141180985 -0.0260145564 0)
(-0.142689429 -0.0811589806 0)
(-0.144683427 -0.135932446 0)
(-0.145383994 -0.189029522 0)
(-0.142149476 -0.237529633 0)
(-0.131741774 -0.275969875 0)
(-0.110959043 -0.295359025 0)
(-0.0782481843 -0.282539182 0)
(-0.0387218114 -0.220978849 0)
(-0.00926851937 -0.0957839742 0)
(-0.0129065005 0.118408545 0)
(-0.0471897065 0.257615175 0)
(-0.0845412844 0.314085573 0)
(-0.107433021 0.3152368 0)
(-0.114222038 0.284803033 0)
(-0.109987074 0.238796056 0)
(-0.100191609 0.186611101 0)
(-0.0892602767 0.133024641 0)
(-0.080351349 0.0799415693 0)
(-0.0754276721 0.0276432443 0)
(-0.0754289747 -0.0243954548 0)
(-0.0803895467 -0.0769480916 0)
(-0.089429887 -0.130558977 0)
(-0.100620781 -0.184972285 0)
(-0.110789499 -0.238285714 0)
(-0.115426946 -0.285651533 0)
(-0.108905911 -0.317458335 0)
(-0.0859441552 -0.317272944 0)
(-0.0480970308 -0.260766778 0)
(-0.0131729799 -0.11998248 0)
(-0.018856506 0.149839414 0)
(-0.0584939975 0.298411269 0)
(-0.0871238352 0.339552572 0)
(-0.0910298057 0.321660366 0)
(-0.0757519575 0.27698095 0)
(-0.0511223614 0.22338474 0)
(-0.0247385349 0.169390583 0)
(-0.00161211372 0.118146569 0)
(0.0152214254 0.0700342605 0)
(0.0241045193 0.0241323169 0)
(0.024302295 -0.0210356758 0)
(0.0157673084 -0.0671084031 0)
(-0.000856599669 -0.115596936 0)
(-0.0239879975 -0.167483979 0)
(-0.0506315544 -0.222453476 0)
(-0.0757440672 -0.277375536 0)
(-0.091583842 -0.323604377 0)
(-0.0880579918 -0.342864159 0)
(-0.0593476799 -0.302137065 0)
(-0.0191649201 -0.151974069 0)
(-0.0264625445 0.19317119 0)
(-0.067700042 0.335014323 0)
(-0.0729896276 0.344651857 0)
(-0.0441148032 0.301756057 0)
(0.00159042943 0.244051749 0)
(0.0502178768 0.187354311 0)
(0.0938180541 0.136864128 0)
(0.128367544 0.0929595226 0)
(0.152066823 0.0541905781 0)
(0.164225576 0.0185620144 0)
(0.164617871 -0.0160354651 0)
(0.153198333 -0.0517325223 0)
(0.130098915 -0.0906764464 0)
(0.0959095936 -0.134939068 0)
(0.0523327178 -0.186079799 0)
(0.00333419869 -0.243831946 0)
(-0.0430904965 -0.30301398 0)
(-0.0728279167 -0.347547203 0)
(-0.0681295118 -0.338913011 0)
(-0.0267083266 -0.195840586 0)
(-0.0289527546 0.251331307 0)
(-0.0581036081 0.350741892 0)
(-0.0140170766 0.309539069 0)
(0.0632657892 0.242400604 0)
(0.142946953 0.180310328 0)
(0.212723816 0.129919442 0)
(0.268472779 0.0905925602 0)
(0.309449331 0.0595774569 0)
(0.336245832 0.0340345883 0)
(0.349654594 0.0115487733 0)
(0.350147692 -0.00995155899 0)
(0.337700432 -0.0324236381 0)
(0.311782813 -0.0579641601 0)
(0.271519282 -0.0890461135 0)
(0.216198156 -0.12861318 0)
(0.146424038 -0.17957616 0)
(0.0662122536 -0.242735899 0)
(-0.0121382493 -0.311417369 0)
(-0.0574832368 -0.354042303 0)
(-0.0288312484 -0.254177676 0)
(0.0132195594 0.289507488 0)
(0.0296816921 0.302854551 0)
(0.154179696 0.214068807 0)
(0.282833701 0.142345223 0)
(0.382969597 0.0939486729 0)
(0.457130854 0.061962456 0)
(0.510502491 0.040550947 0)
(0.547090518 0.025547407 0)
(0.56995993 0.0142061078 0)
(0.581116179 0.00473811697 0)
(0.581523403 -0.00414301363 0)
(0.571184989 -0.0135724663 0)
(0.549136892 -0.0248412637 0)
(0.513349852 -0.039753851 0)
(0.460686705 -0.0611006442 0)
(0.387005996 -0.0931595593 0)
(0.286924357 -0.14196963 0)
(0.15762611 -0.214616957 0)
(0.0318291833 -0.304532302 0)
(0.0142600284 -0.291324498 0)
(0.304245121 0.147454743 0)
(0.405563376 0.127829552 0)
(0.569531344 0.0747834982 0)
(0.686121677 0.0418385766 0)
(0.753522531 0.0238429755 0)
(0.794598207 0.0139302408 0)
(0.820887683 0.00829802379 0)
(0.837586478 0.00488893103 0)
(0.847522293 0.00260052564 0)
(0.852223006 0.000835243358 0)
(0.852350812 -0.000772310114 0)
(0.847917609 -0.00252075497 0)
(0.838285536 -0.00477209078 0)
(0.821949448 -0.00811771391 0)
(0.796091297 -0.0136558002 0)
(0.755502851 -0.0234583767 0)
(0.688596479 -0.0413908883 0)
(0.572194812 -0.0744403312 0)
(0.4075242 -0.127868561 0)
(0.305169545 -0.147795834 0)
)
;

boundaryField
{
    top
    {
        type            fixedValue;
        value           uniform (1 0 0);
    }
    left
    {
        type            fixedValue;
        value           uniform (0 0 0);
    }
    right
    {
        type            fixedValue;
        value           uniform (0 0 0);
    }
    bottom
    {
        type            fixedValue;
        value           uniform (0 0 0);
    }
    back0
    {
        type            empty;
    }
    front1
    {
        type            empty;
    }
}


// ************************************************************************* //
