/*--------------------------------*- C++ -*----------------------------------*\
| =========                 |                                                 |
| \\      /  F ield         | OpenFOAM: The Open Source CFD Toolbox           |
|  \\    /   O peration     | Version:  3.0.1                                 |
|   \\  /    A nd           | Web:      www.OpenFOAM.org                      |
|    \\/     M anipulation  |                                                 |
\*---------------------------------------------------------------------------*/
FoamFile
{
    version     2.0;
    format      ascii;
    class       volVectorField;
    location    "3";
    object      vorticity;
}
// * * * * * * * * * * * * * * * * * * * * * * * * * * * * * * * * * * * * * //

dimensions      [0 0 -1 0 0 0 0];

internalField   nonuniform List<vector> 
400
(
(0 -0 -0.00347018956)
(0 -0 0.0221863687)
(0 -0 0.0755181941)
(0 -0 0.156109029)
(0 -0 0.254454455)
(0 -0 0.358690744)
(0 -0 0.457259153)
(0 -0 0.540229364)
(0 -0 0.599920697)
(0 -0 0.631138627)
(0 -0 0.631252177)
(0 -0 0.600220483)
(0 -0 0.54060784)
(0 -0 0.457582414)
(0 -0 0.358850477)
(0 -0 0.254412331)
(0 -0 0.155914041)
(0 -0 0.0752824501)
(0 -0 0.0220150776)
(0 -0 -0.00355282136)
(0 -0 0.0218552757)
(0 -0 0.0761113241)
(0 -0 0.128104465)
(0 -0 0.186678595)
(0 -0 0.251556704)
(0 -0 0.31827342)
(0 -0 0.380917586)
(0 -0 0.433681328)
(0 -0 0.471724386)
(0 -0 0.491634151)
(0 -0 0.491655242)
(0 -0 0.4717843)
(0 -0 0.433770994)
(0 -0 0.381024563)
(0 -0 0.318383876)
(0 -0 0.251655385)
(0 -0 0.186746483)
(0 -0 0.128115764)
(0 -0 0.0760345063)
(0 -0 0.0216762009)
(0 -0 0.0753316823)
(0 -0 0.132299817)
(0 -0 0.174101854)
(0 -0 0.210913943)
(0 -0 0.2467579)
(0 -0 0.281835188)
(0 -0 0.314345987)
(0 -0 0.341749199)
(0 -0 0.361586323)
(0 -0 0.371991078)
(0 -0 0.371977513)
(0 -0 0.361565454)
(0 -0 0.34177201)
(0 -0 0.314471371)
(0 -0 0.282098448)
(0 -0 0.247141175)
(0 -0 0.211330878)
(0 -0 0.174407473)
(0 -0 0.132330341)
(0 -0 0.0749740372)
(0 -0 0.162175399)
(0 -0 0.20366785)
(0 -0 0.225096344)
(0 -0 0.236099222)
(0 -0 0.242668977)
(0 -0 0.24786818)
(0 -0 0.252763848)
(0 -0 0.257268397)
(0 -0 0.260797423)
(0 -0 0.262735928)
(0 -0 0.262728555)
(0 -0 0.26081103)
(0 -0 0.257394714)
(0 -0 0.253108184)
(0 -0 0.248492111)
(0 -0 0.243536232)
(0 -0 0.237046158)
(0 -0 0.225845537)
(0 -0 0.20389187)
(0 -0 0.161606315)
(0 -0 0.282044616)
(0 -0 0.295149304)
(0 -0 0.286568416)
(0 -0 0.265744762)
(0 -0 0.23993502)
(0 -0 0.214143875)
(0 -0 0.191481263)
(0 -0 0.173666902)
(0 -0 0.161526655)
(0 -0 0.155399757)
(0 -0 0.155416266)
(0 -0 0.161627228)
(0 -0 0.173982982)
(0 -0 0.192164926)
(0 -0 0.215285026)
(0 -0 0.241479709)
(0 -0 0.267443792)
(0 -0 0.287984151)
(0 -0 0.2957358)
(0 -0 0.281301909)
(0 -0 0.434347777)
(0 -0 0.408435808)
(0 -0 0.360420886)
(0 -0 0.300489378)
(0 -0 0.237244734)
(0 -0 0.17729612)
(0 -0 0.12531114)
(0 -0 0.084332836)
(0 -0 0.056192988)
(0 -0 0.0419007268)
(0 -0 0.041927958)
(0 -0 0.0563468632)
(0 -0 0.084801666)
(0 -0 0.126320429)
(0 -0 0.178995522)
(0 -0 0.239588802)
(0 -0 0.303149984)
(0 -0 0.362772643)
(0 -0 0.409645652)
(0 -0 0.433583333)
(0 -0 0.619556154)
(0 -0 0.544059315)
(0 -0 0.446464592)
(0 -0 0.338793207)
(0 -0 0.231436401)
(0 -0 0.132583235)
(0 -0 0.048165738)
(0 -0 -0.017848899)
(0 -0 -0.06300893)
(0 -0 -0.085927988)
(0 -0 -0.085943731)
(0 -0 -0.06295107)
(0 -0 -0.017437467)
(0 -0 0.049284288)
(0 -0 0.134684788)
(0 -0 0.23454731)
(0 -0 0.342544553)
(0 -0 0.450033512)
(0 -0 0.546256047)
(0 -0 0.61909824)
(0 -0 0.839525368)
(0 -0 0.702185229)
(0 -0 0.543057028)
(0 -0 0.377212038)
(0 -0 0.217452894)
(0 -0 0.073646287)
(0 -0 -0.047271801)
(0 -0 -0.140843068)
(0 -0 -0.204444003)
(0 -0 -0.236661236)
(0 -0 -0.236825152)
(0 -0 -0.204780904)
(0 -0 -0.140930987)
(0 -0 -0.046546589)
(0 -0 0.075694004)
(0 -0 0.221035481)
(0 -0 0.382010891)
(0 -0 0.548083445)
(0 -0 0.705839848)
(0 -0 0.839948486)
(0 -0 1.09750742)
(0 -0 0.882743757)
(0 -0 0.647103504)
(0 -0 0.410205567)
(0 -0 0.188018685)
(0 -0 -0.00785146)
(0 -0 -0.169874942)
(0 -0 -0.293726626)
(0 -0 -0.377236297)
(0 -0 -0.419443618)
(0 -0 -0.419921435)
(0 -0 -0.378445892)
(0 -0 -0.295043966)
(0 -0 -0.170420414)
(0 -0 -0.0067329)
(0 -0 0.191378358)
(0 -0 0.415708872)
(0 -0 0.653702528)
(0 -0 0.888420827)
(0 -0 1.09970104)
(0 -0 1.39816943)
(0 -0 1.08514937)
(0 -0 0.753480287)
(0 -0 0.429411684)
(0 -0 0.132938104)
(0 -0 -0.12278156)
(0 -0 -0.330437363)
(0 -0 -0.486868713)
(0 -0 -0.591310628)
(0 -0 -0.643954159)
(0 -0 -0.644973294)
(0 -0 -0.594058638)
(0 -0 -0.490463795)
(0 -0 -0.33357397)
(0 -0 -0.12400401)
(0 -0 0.134821324)
(0 -0 0.434805422)
(0 -0 0.761507935)
(0 -0 1.09345669)
(0 -0 1.40339399)
(0 -0 1.74784937)
(0 -0 1.30760397)
(0 -0 0.853724565)
(0 -0 0.422202136)
(0 -0 0.03788159)
(0 -0 -0.28536184)
(0 -0 -0.54206921)
(0 -0 -0.731987109)
(0 -0 -0.857215924)
(0 -0 -0.920105945)
(0 -0 -0.921938925)
(0 -0 -0.862315346)
(0 -0 -0.739187641)
(0 -0 -0.54955925)
(0 -0 -0.290944)
(0 -0 0.03632073)
(0 -0 0.425987551)
(0 -0 0.862574298)
(0 -0 1.31908028)
(0 -0 1.75776048)
(0 -0 2.15519783)
(0 -0 1.54564013)
(0 -0 0.933494572)
(0 -0 0.369131878)
(0 -0 -0.11752994)
(0 -0 -0.51424726)
(0 -0 -0.82055674)
(0 -0 -1.04197662)
(0 -0 -1.18562214)
(0 -0 -1.25737506)
(0 -0 -1.26029171)
(0 -0 -1.19390299)
(0 -0 -1.05421609)
(0 -0 -0.83444904)
(0 -0 -0.52674999)
(0 -0 -0.12529899)
(0 -0 0.368895891)
(0 -0 0.941805855)
(0 -0 1.56054196)
(0 -0 2.17180751)
(0 -0 2.63220553)
(0 -0 1.78887521)
(0 -0 0.967690422)
(0 -0 0.239598229)
(0 -0 -0.36255812)
(0 -0 -0.8338177)
(0 -0 -1.18448709)
(0 -0 -1.43030731)
(0 -0 -1.58632447)
(0 -0 -1.66362105)
(0 -0 -1.66779452)
(0 -0 -1.5983665)
(0 -0 -1.44873157)
(0 -0 -1.20668325)
(0 -0 -0.85599262)
(0 -0 -0.3799602)
(0 -0 0.231856193)
(0 -0 0.97296774)
(0 -0 1.80680201)
(0 -0 2.65772488)
(0 -0 3.19470518)
(0 -0 2.01329419)
(0 -0 0.910984531)
(0 -0 -0.01532096)
(0 -0 -0.73915962)
(0 -0 -1.27527866)
(0 -0 -1.65468775)
(0 -0 -1.90964429)
(0 -0 -2.0665334)
(0 -0 -2.1432584)
(0 -0 -2.14861691)
(0 -0 -2.08223008)
(0 -0 -1.93442289)
(0 -0 -1.68608634)
(0 -0 -1.30920821)
(0 -0 -0.7696578)
(0 -0 -0.03498488)
(0 -0 0.909197491)
(0 -0 2.03256243)
(0 -0 3.23114959)
(0 -0 3.8581446)
(0 -0 2.16246378)
(0 -0 0.679540781)
(0 -0 -0.473964615)
(0 -0 -1.30613509)
(0 -0 -1.87648169)
(0 -0 -2.25208866)
(0 -0 -2.48915649)
(0 -0 -2.6282122)
(0 -0 -2.69470447)
(0 -0 -2.70074616)
(0 -0 -2.64620259)
(0 -0 -2.5185102)
(0 -0 -2.29122734)
(0 -0 -1.92197171)
(0 -0 -1.35170326)
(0 -0 -0.509966122)
(0 -0 0.665013639)
(0 -0 2.17916332)
(0 -0 3.90645659)
(0 -0 4.61806725)
(0 -0 2.10223493)
(0 -0 0.116974396)
(0 -0 -1.25889841)
(0 -0 -2.14088095)
(0 -0 -2.67795318)
(0 -0 -2.99247834)
(0 -0 -3.16984143)
(0 -0 -3.26432423)
(0 -0 -3.30723184)
(0 -0 -3.31287567)
(0 -0 -3.28149139)
(0 -0 -3.19904378)
(0 -0 -3.03386914)
(0 -0 -2.73013774)
(0 -0 -2.19912047)
(0 -0 -1.31304037)
(0 -0 0.083510738)
(0 -0 2.10922571)
(0 -0 4.67646479)
(0 -0 5.38281761)
(0 -0 1.51090276)
(0 -0 -1.06365026)
(0 -0 -2.54895703)
(0 -0 -3.33100656)
(0 -0 -3.71033799)
(0 -0 -3.87606103)
(0 -0 -3.93734995)
(0 -0 -3.95421915)
(0 -0 -3.95776118)
(0 -0 -3.96139934)
(0 -0 -3.96574105)
(0 -0 -3.95845959)
(0 -0 -3.90910631)
(0 -0 -3.75722587)
(0 -0 -3.39102287)
(0 -0 -2.61511352)
(0 -0 -1.11818773)
(0 -0 1.49842173)
(0 -0 5.44419925)
(0 -0 5.62391096)
(0 -0 -0.391739724)
(0 -0 -3.35510611)
(0 -0 -4.56177246)
(0 -0 -4.9386033)
(0 -0 -4.96630744)
(0 -0 -4.87026422)
(0 -0 -4.75280946)
(0 -0 -4.65921791)
(0 -0 -4.60876751)
(0 -0 -4.60877942)
(0 -0 -4.65999257)
(0 -0 -4.75660452)
(0 -0 -4.88089278)
(0 -0 -4.98884033)
(0 -0 -4.97794516)
(0 -0 -4.61856062)
(0 -0 -3.41760432)
(0 -0 -0.427190023)
(0 -0 5.67251625)
(0 -0 2.59164164)
(0 -0 -5.39105665)
(0 -0 -7.44057749)
(0 -0 -7.42976022)
(0 -0 -6.90958344)
(0 -0 -6.35272116)
(0 -0 -5.88829953)
(0 -0 -5.54481986)
(0 -0 -5.32085751)
(0 -0 -5.20917535)
(0 -0 -5.20513703)
(0 -0 -5.30915427)
(0 -0 -5.52684107)
(0 -0 -5.86689546)
(0 -0 -6.3329885)
(0 -0 -6.89947799)
(0 -0 -7.43841623)
(0 -0 -7.46895733)
(0 -0 -5.4171498)
(0 -0 2.61856008)
(0 -0 -14.0725103)
(0 -0 -16.3742618)
(0 -0 -13.6227993)
(0 -0 -10.8198514)
(0 -0 -8.91416206)
(0 -0 -7.63815889)
(0 -0 -6.77651136)
(0 -0 -6.21020503)
(0 -0 -5.86571467)
(0 -0 -5.70033651)
(0 -0 -5.69481784)
(0 -0 -5.84897183)
(0 -0 -6.18174531)
(0 -0 -6.73584409)
(0 -0 -7.58562661)
(0 -0 -8.85226243)
(0 -0 -10.7546112)
(0 -0 -13.5665675)
(0 -0 -16.3400212)
(0 -0 -14.0490603)
)
;

boundaryField
{
    top
    {
        type            calculated;
        value           nonuniform List<vector> 
20
(
(0 -0 -25.0773522)
(0 -0 -24.5041774)
(0 -0 -18.078656)
(0 -0 -13.0645381)
(0 -0 -10.1381821)
(0 -0 -8.37152119)
(0 -0 -7.25490577)
(0 -0 -6.55351586)
(0 -0 -6.1396452)
(0 -0 -5.94480812)
(0 -0 -5.93952751)
(0 -0 -6.12329345)
(0 -0 -6.52454815)
(0 -0 -7.21085917)
(0 -0 -8.30975474)
(0 -0 -10.0572369)
(0 -0 -12.9659604)
(0 -0 -17.9769842)
(0 -0 -24.432587)
(0 -0 -25.0365742)
)
;
    }
    left
    {
        type            calculated;
        value           nonuniform List<vector> 
20
(
(0 -0 -0.0121585001)
(0 -0 -4.142692e-05)
(0 -0 0.0496988489)
(0 -0 0.142372539)
(0 -0 0.275551905)
(0 -0 0.447202475)
(0 -0 0.657559678)
(0 -0 0.909284767)
(0 -0 1.2074271)
(0 -0 1.55967793)
(0 -0 1.97732296)
(0 -0 2.47743884)
(0 -0 3.08715816)
(0 -0 3.85040123)
(0 -0 4.8342492)
(0 -0 6.12913696)
(0 -0 7.82781009)
(0 -0 9.65643124)
(0 -0 8.24832077)
(0 -0 -10.9271635)
)
;
    }
    right
    {
        type            calculated;
        value           nonuniform List<vector> 
20
(
(0 -0 -0.0122547646)
(0 -0 -0.00030729806)
(0 -0 0.0490988867)
(0 -0 0.141331928)
(0 -0 0.274033978)
(0 -0 0.44529505)
(0 -0 0.655562224)
(0 -0 0.907811087)
(0 -0 1.20751625)
(0 -0 1.56290518)
(0 -0 1.98589681)
(0 -0 2.49426071)
(0 -0 3.11580059)
(0 -0 3.89488034)
(0 -0 4.89826321)
(0 -0 6.21431618)
(0 -0 7.93028672)
(0 -0 9.75742349)
(0 -0 8.31297203)
(0 -0 -10.8938709)
)
;
    }
    bottom
    {
        type            calculated;
        value           nonuniform List<vector> 
20
(
(0 -0 -0.0118782451)
(0 -0 0.00165260626)
(0 -0 0.0535436966)
(0 -0 0.143033957)
(0 -0 0.256814503)
(0 -0 0.379115304)
(0 -0 0.495324251)
(0 -0 0.593285192)
(0 -0 0.663783723)
(0 -0 0.700664969)
(0 -0 0.70082784)
(0 -0 0.664213051)
(0 -0 0.593825065)
(0 -0 0.495781055)
(0 -0 0.379333834)
(0 -0 0.256743176)
(0 -0 0.142750014)
(0 -0 0.0532156192)
(0 -0 0.00143232618)
(0 -0 -0.0119708574)
)
;
    }
    back0
    {
        type            empty;
    }
    front1
    {
        type            empty;
    }
}


// ************************************************************************* //
