/*--------------------------------*- C++ -*----------------------------------*\
| =========                 |                                                 |
| \\      /  F ield         | OpenFOAM: The Open Source CFD Toolbox           |
|  \\    /   O peration     | Version:  3.0.1                                 |
|   \\  /    A nd           | Web:      www.OpenFOAM.org                      |
|    \\/     M anipulation  |                                                 |
\*---------------------------------------------------------------------------*/
FoamFile
{
    version     2.0;
    format      ascii;
    class       volVectorField;
    location    "3";
    object      W;
}
// * * * * * * * * * * * * * * * * * * * * * * * * * * * * * * * * * * * * * //

dimensions      [0 1 -1 0 0 0 0];

internalField   nonuniform List<vector> 
400
(
(7.3532785e-09 -1.12829684e-08 0)
(8.32990562e-08 -7.23882659e-08 0)
(1.3463889e-07 -9.33026466e-08 0)
(-2.4351079e-08 -2.49377963e-08 0)
(-2.68467479e-07 1.06534596e-07 0)
(-3.75937438e-07 2.0499231e-07 0)
(-2.02805234e-07 1.7474393e-07 0)
(1.84509961e-07 5.44439532e-09 0)
(5.26853222e-07 -2.03189707e-07 0)
(5.52569093e-07 -3.03693905e-07 0)
(1.91140991e-07 -2.08520373e-07 0)
(-3.48288873e-07 3.80119716e-08 0)
(-7.06519256e-07 2.81091522e-07 0)
(-6.25425889e-07 3.58337157e-07 0)
(-1.35894023e-07 2.10578058e-07 0)
(4.58847772e-07 -7.7855631e-08 0)
(7.90915423e-07 -3.31868923e-07 0)
(6.99047789e-07 -4.01818449e-07 0)
(4.02672998e-07 -2.86091623e-07 0)
(4.86295993e-08 -8.59137994e-08 0)
(-5.32683292e-08 5.95636824e-08 0)
(-1.53030153e-08 -8.17668183e-08 0)
(1.86166091e-07 -2.2093579e-07 0)
(2.19104555e-07 -1.75027801e-07 0)
(4.77244815e-08 6.59367438e-08 0)
(-2.11629587e-07 3.51783507e-07 0)
(-3.57231088e-07 4.51380437e-07 0)
(-2.45431943e-07 2.34471059e-07 0)
(7.91465074e-08 -1.99369294e-07 0)
(3.96485865e-07 -5.64582749e-07 0)
(4.67459211e-07 -5.87513558e-07 0)
(2.17202782e-07 -2.14055586e-07 0)
(-1.98835825e-07 3.32848339e-07 0)
(-5.02650121e-07 6.96092805e-07 0)
(-4.95167337e-07 6.28109563e-07 0)
(-1.96584679e-07 1.64302579e-07 0)
(1.87387e-07 -3.93052848e-07 0)
(4.84373379e-07 -7.01738278e-07 0)
(6.60936942e-07 -6.99585692e-07 0)
(2.53612219e-07 -4.6111175e-07 0)
(-1.11820733e-07 1.78428576e-07 0)
(-2.01753761e-07 1.27716295e-07 0)
(2.25510301e-08 -8.80794751e-08 0)
(2.52948231e-07 -2.52560884e-07 0)
(3.24699008e-07 -2.42965655e-07 0)
(1.53979699e-07 -2.60361368e-08 0)
(-1.7582793e-07 2.68981068e-07 0)
(-4.31217558e-07 4.21065195e-07 0)
(-4.02539486e-07 2.88453527e-07 0)
(-7.57447004e-08 -6.82806873e-08 0)
(3.39201285e-07 -4.14263043e-07 0)
(5.52844488e-07 -5.04861e-07 0)
(4.06709266e-07 -2.6506783e-07 0)
(-1.07079401e-08 1.51755525e-07 0)
(-4.28939156e-07 4.71582099e-07 0)
(-5.8591634e-07 4.98491271e-07 0)
(-3.92246292e-07 2.59680019e-07 0)
(9.19089739e-08 -6.91202555e-08 0)
(6.45300353e-07 -4.55167134e-07 0)
(3.4433036e-07 -6.83863854e-07 0)
(-8.96754802e-08 9.64093823e-08 0)
(-2.63790549e-07 2.48669613e-07 0)
(-1.91020008e-07 1.48627281e-07 0)
(5.37895338e-08 -1.08104031e-07 0)
(3.24596647e-07 -3.49105397e-07 0)
(4.06804839e-07 -3.71985127e-07 0)
(1.83050289e-07 -1.07573132e-07 0)
(-2.23133177e-07 2.90107613e-07 0)
(-5.20919105e-07 5.39614965e-07 0)
(-4.71506074e-07 4.39690444e-07 0)
(-7.94045954e-08 2.94464918e-08 0)
(3.96244797e-07 -4.26094163e-07 0)
(6.2387016e-07 -6.19899548e-07 0)
(4.39098951e-07 -4.21119423e-07 0)
(-3.6685939e-08 3.48231961e-08 0)
(-4.81130126e-07 4.51882696e-07 0)
(-5.86089496e-07 5.91107163e-07 0)
(-2.36077713e-07 3.91496584e-07 0)
(3.45782657e-07 -1.57555454e-07 0)
(2.75689427e-07 -6.92421466e-07 0)
(2.73228841e-08 -1.53841835e-07 0)
(-1.06831099e-07 1.71481931e-07 0)
(-2.99085811e-07 3.29990069e-07 0)
(-2.4494119e-07 1.89495783e-07 0)
(5.90073736e-08 -1.46789833e-07 0)
(3.99405634e-07 -4.47243741e-07 0)
(4.92116925e-07 -4.63960873e-07 0)
(2.21228279e-07 -1.34199641e-07 0)
(-2.49105052e-07 3.42196868e-07 0)
(-5.84101528e-07 6.31792716e-07 0)
(-5.27275291e-07 5.11717727e-07 0)
(-9.89550719e-08 4.22521327e-08 0)
(4.09482985e-07 -4.67126285e-07 0)
(6.43594662e-07 -6.75780407e-07 0)
(4.42451797e-07 -4.52337266e-07 0)
(-4.22277595e-08 3.95175415e-08 0)
(-4.48712495e-07 4.67049056e-07 0)
(-4.75665586e-07 5.53292662e-07 0)
(-1.55161225e-07 1.97282373e-07 0)
(6.37598407e-08 -3.32774103e-07 0)
(1.70921519e-07 -3.80203143e-07 0)
(2.06052083e-07 -7.36316627e-08 0)
(-1.87401917e-07 2.96954491e-07 0)
(-4.23628459e-07 4.19315171e-07 0)
(-3.16330767e-07 2.36147796e-07 0)
(7.97286223e-08 -1.70334778e-07 0)
(4.86977055e-07 -5.26712225e-07 0)
(5.83955292e-07 -5.48907873e-07 0)
(2.61405783e-07 -1.76379579e-07 0)
(-2.76175266e-07 3.57324037e-07 0)
(-6.49846726e-07 6.82562548e-07 0)
(-5.84972808e-07 5.63239998e-07 0)
(-1.18334563e-07 7.3369567e-08 0)
(4.23937174e-07 -4.53554869e-07 0)
(6.62804979e-07 -6.64560523e-07 0)
(4.44995421e-07 -4.3995049e-07 0)
(-4.34286549e-08 2.59970559e-08 0)
(-4.54236519e-07 3.93655712e-07 0)
(-5.48502129e-07 4.61575168e-07 0)
(-1.67244581e-07 2.01839075e-07 0)
(2.28152562e-07 -3.71590987e-07 0)
(4.58514603e-07 -3.19416472e-07 0)
(1.04832665e-07 2.04401229e-08 0)
(-3.11212079e-07 3.6311515e-07 0)
(-5.26508049e-07 5.08764269e-07 0)
(-3.65886166e-07 2.96069056e-07 0)
(1.06989528e-07 -1.82072917e-07 0)
(5.6436914e-07 -5.97252096e-07 0)
(6.56210435e-07 -6.30758367e-07 0)
(2.85883007e-07 -2.25608193e-07 0)
(-3.01884756e-07 3.55111732e-07 0)
(-6.93080229e-07 7.12608572e-07 0)
(-6.08479137e-07 6.01899953e-07 0)
(-1.11087264e-07 1.08744225e-07 0)
(4.3916904e-07 -4.18036155e-07 0)
(6.5179647e-07 -6.28151695e-07 0)
(3.94234798e-07 -4.27306218e-07 0)
(-1.47703779e-07 1.47709275e-09 0)
(-5.79779157e-07 4.47685364e-07 0)
(-2.77612795e-07 5.74795268e-07 0)
(1.29820703e-07 -6.75362936e-08 0)
(4.29944895e-07 -3.61586595e-07 0)
(3.79144794e-07 -3.2502167e-07 0)
(5.84473664e-08 1.020719e-08 0)
(-3.76752144e-07 4.28896915e-07 0)
(-6.09547471e-07 6.06134409e-07 0)
(-4.08396957e-07 3.55993054e-07 0)
(1.26478963e-07 -1.87692782e-07 0)
(6.19666127e-07 -6.50588551e-07 0)
(7.02781175e-07 -6.92219393e-07 0)
(2.98119174e-07 -2.64968437e-07 0)
(-3.14696715e-07 3.42860478e-07 0)
(-7.0143857e-07 7.1494448e-07 0)
(-5.93706542e-07 6.08813185e-07 0)
(-8.72583311e-08 1.2458643e-07 0)
(4.31237948e-07 -3.84441841e-07 0)
(5.76035746e-07 -5.84235429e-07 0)
(2.46050291e-07 -3.73638019e-07 0)
(-2.45595042e-07 1.55258888e-07 0)
(-2.07744059e-07 5.60594628e-07 0)
(-8.25947589e-08 3.60227465e-07 0)
(8.09289509e-08 -1.27850838e-07 0)
(4.18014576e-07 -4.77854949e-07 0)
(4.42548369e-07 -4.04743315e-07 0)
(7.22389343e-08 1.09242823e-08 0)
(-4.37227138e-07 4.96072632e-07 0)
(-6.83305143e-07 6.87952438e-07 0)
(-4.43365702e-07 4.0676968e-07 0)
(1.38499284e-07 -1.82850043e-07 0)
(6.51003982e-07 -6.76121681e-07 0)
(7.21957966e-07 -7.2357751e-07 0)
(2.98015998e-07 -2.90578554e-07 0)
(-3.14352662e-07 3.17608879e-07 0)
(-6.77692853e-07 6.82339626e-07 0)
(-5.50288211e-07 5.75883322e-07 0)
(-6.46866047e-08 1.14699567e-07 0)
(3.81558216e-07 -3.4676081e-07 0)
(4.61118951e-07 -4.86491605e-07 0)
(2.14151263e-07 -2.14524837e-07 0)
(-1.55238017e-08 1.98546456e-07 0)
(-2.71187328e-07 6.06967307e-07 0)
(-3.83413033e-07 2.42130425e-07 0)
(1.58277394e-07 -2.93516342e-07 0)
(5.56107445e-07 -5.66588178e-07 0)
(5.20485344e-07 -4.59396651e-07 0)
(6.60661616e-08 7.60231808e-09 0)
(-4.92199231e-07 5.39017476e-07 0)
(-7.34927218e-07 7.44217209e-07 0)
(-4.62742754e-07 4.46729985e-07 0)
(1.44205785e-07 -1.65546131e-07 0)
(6.55791457e-07 -6.7081991e-07 0)
(7.10921516e-07 -7.22706946e-07 0)
(2.83601062e-07 -3.01639783e-07 0)
(-3.04062444e-07 2.79933385e-07 0)
(-6.29862716e-07 6.17059281e-07 0)
(-4.90974948e-07 5.11575202e-07 0)
(-4.59789134e-08 1.0417005e-07 0)
(3.62238607e-07 -2.74872247e-07 0)
(4.91115713e-07 -4.09306424e-07 0)
(1.65327504e-07 -2.43699466e-07 0)
(-2.95414766e-07 4.58174657e-07 0)
(-6.39389399e-07 4.82553858e-07 0)
(-2.41634219e-07 1.26637817e-07 0)
(2.89335581e-07 -3.2470258e-07 0)
(6.39425424e-07 -6.28526262e-07 0)
(5.56992984e-07 -5.18943308e-07 0)
(5.39366954e-08 -1.12676937e-08 0)
(-5.23829323e-07 5.55241935e-07 0)
(-7.54587892e-07 7.71732688e-07 0)
(-4.63800354e-07 4.72354231e-07 0)
(1.42666105e-07 -1.38166148e-07 0)
(6.32840758e-07 -6.36030303e-07 0)
(6.69565038e-07 -6.90211142e-07 0)
(2.54328889e-07 -2.97235686e-07 0)
(-2.87352463e-07 2.34907553e-07 0)
(-5.62483681e-07 5.34264974e-07 0)
(-4.05608064e-07 4.45332604e-07 0)
(3.94252329e-08 9.54781865e-08 0)
(4.24342864e-07 -3.13606656e-07 0)
(2.19718955e-07 -4.70323829e-07 0)
(-1.19179348e-07 -3.01592144e-08 0)
(-4.79328054e-07 3.98302516e-07 0)
(-5.03196879e-07 4.91723343e-07 0)
(-1.93827117e-07 1.73519628e-07 0)
(3.22042343e-07 -3.48633501e-07 0)
(6.80967534e-07 -6.915337e-07 0)
(5.74972226e-07 -5.69625246e-07 0)
(4.91562124e-08 -3.63347366e-08 0)
(-5.26962202e-07 5.44662565e-07 0)
(-7.41376101e-07 7.666508e-07 0)
(-4.47265053e-07 4.79522509e-07 0)
(1.33793386e-07 -1.047243e-07 0)
(5.84090831e-07 -5.75972679e-07 0)
(6.01425421e-07 -6.29333612e-07 0)
(2.13942963e-07 -2.75867816e-07 0)
(-2.59025092e-07 1.94050592e-07 0)
(-4.61650941e-07 4.51975589e-07 0)
(-2.67987501e-07 3.58683501e-07 0)
(1.00442077e-07 -2.60242591e-08 0)
(1.2866208e-07 -3.65360511e-07 0)
(1.51558127e-07 -5.4345124e-07 0)
(2.00359864e-08 2.26918512e-08 0)
(-4.30491731e-07 5.30725605e-07 0)
(-5.61857009e-07 5.75151893e-07 0)
(-2.23073911e-07 1.93822028e-07 0)
(3.41260648e-07 -3.69474547e-07 0)
(7.01104694e-07 -7.21273995e-07 0)
(5.76486523e-07 -5.9535608e-07 0)
(4.93489423e-08 -6.44516707e-08 0)
(-5.04538221e-07 5.0637476e-07 0)
(-6.98232772e-07 7.2734161e-07 0)
(-4.14950409e-07 4.65631417e-07 0)
(1.18946659e-07 -6.98102326e-08 0)
(5.15419354e-07 -4.96611814e-07 0)
(5.164527e-07 -5.44175122e-07 0)
(1.74608689e-07 -2.36780018e-07 0)
(-2.1009177e-07 1.56281123e-07 0)
(-3.54646748e-07 3.4807273e-07 0)
(-2.30944247e-07 2.30434673e-07 0)
(-2.70496344e-08 -5.28915703e-08 0)
(3.34984088e-07 -7.20933863e-07 0)
(5.31162828e-07 -3.92892509e-07 0)
(-6.21331951e-08 1.98491712e-07 0)
(-5.55498466e-07 5.80729026e-07 0)
(-6.15761359e-07 6.05347399e-07 0)
(-2.20560281e-07 2.16547033e-07 0)
(3.52184966e-07 -3.52422552e-07 0)
(6.9002538e-07 -7.07307899e-07 0)
(5.54144224e-07 -5.95185622e-07 0)
(4.97034559e-08 -9.54099751e-08 0)
(-4.61200718e-07 4.42245487e-07 0)
(-6.29728591e-07 6.56475371e-07 0)
(-3.68688351e-07 4.317134e-07 0)
(1.0216423e-07 -3.59788158e-08 0)
(4.37435768e-07 -4.03975298e-07 0)
(4.27447375e-07 -4.44110204e-07 0)
(1.373351e-07 -1.96426903e-07 0)
(-1.94812456e-07 1.09279875e-07 0)
(-3.51791449e-07 2.84692817e-07 0)
(-1.35075761e-07 2.22894218e-07 0)
(2.99603253e-07 -4.18606481e-07 0)
(6.99358038e-07 -5.58216404e-07 0)
(3.48902014e-07 -2.8197023e-07 0)
(-1.80921456e-07 1.75510805e-07 0)
(-5.84557951e-07 5.82025217e-07 0)
(-6.03489961e-07 6.32510092e-07 0)
(-2.04083181e-07 2.53619331e-07 0)
(3.36417183e-07 -3.04511581e-07 0)
(6.4016667e-07 -6.58547755e-07 0)
(5.06677189e-07 -5.73715737e-07 0)
(4.93632912e-08 -1.26971975e-07 0)
(-4.00136535e-07 3.60755082e-07 0)
(-5.40055375e-07 5.64549404e-07 0)
(-3.09933179e-07 3.8439657e-07 0)
(8.73553327e-08 -4.96641339e-09 0)
(3.56204741e-07 -3.1042052e-07 0)
(3.29522069e-07 -3.50071311e-07 0)
(5.93131828e-08 -1.55957362e-07 0)
(-2.25413057e-07 1.36538131e-07 0)
(-1.34732749e-07 2.89194117e-07 0)
(6.01026647e-08 1.75713022e-07 0)
(4.01568191e-07 -3.58392188e-07 0)
(5.23700647e-07 -5.7654963e-07 0)
(2.97742517e-07 -3.46957425e-07 0)
(-1.69215136e-07 1.50706694e-07 0)
(-5.54295301e-07 5.77950103e-07 0)
(-5.67727572e-07 6.34070017e-07 0)
(-1.98241951e-07 2.77364706e-07 0)
(2.90580161e-07 -2.47294925e-07 0)
(5.61795697e-07 -5.86848661e-07 0)
(4.46801523e-07 -5.29903624e-07 0)
(5.44281738e-08 -1.46296066e-07 0)
(-3.24869941e-07 2.79897566e-07 0)
(-4.3862625e-07 4.65743345e-07 0)
(-2.4742521e-07 3.27172749e-07 0)
(6.9034254e-08 1.39344564e-08 0)
(2.65087806e-07 -2.31490992e-07 0)
(2.14174121e-07 -2.58758942e-07 0)
(7.17080006e-09 -6.82895115e-08 0)
(-5.1338185e-08 1.55054555e-07 0)
(-2.24374462e-07 6.67215463e-07 0)
(-1.49265645e-07 6.70577968e-08 0)
(3.7585739e-07 -4.76693314e-07 0)
(5.64637641e-07 -5.92385981e-07 0)
(3.15226762e-07 -3.4049443e-07 0)
(-1.60397656e-07 1.25042691e-07 0)
(-5.23106171e-07 5.12479979e-07 0)
(-5.29196374e-07 5.69428631e-07 0)
(-1.90821418e-07 2.66262981e-07 0)
(2.46220865e-07 -1.84096061e-07 0)
(4.85266709e-07 -4.80743059e-07 0)
(3.87768556e-07 -4.45992893e-07 0)
(5.71808143e-08 -1.39137838e-07 0)
(-2.55895914e-07 2.04855045e-07 0)
(-3.46030082e-07 3.56510001e-07 0)
(-1.93801151e-07 2.52156579e-07 0)
(4.49937938e-08 1.61077818e-08 0)
(1.86617678e-07 -1.61587377e-07 0)
(1.63064619e-07 -1.69793994e-07 0)
(3.81498423e-08 -3.09622036e-08 0)
(-3.63166209e-07 7.56760574e-07 0)
(-5.757455e-07 4.79729377e-07 0)
(3.34941208e-08 -2.5687133e-09 0)
(4.60915856e-07 -3.52533511e-07 0)
(5.24939581e-07 -5.15610219e-07 0)
(2.59521903e-07 -3.80019375e-07 0)
(-1.55754024e-07 -1.01574311e-08 0)
(-4.49823925e-07 3.54299194e-07 0)
(-4.39879878e-07 4.77617708e-07 0)
(-1.52622565e-07 2.9439143e-07 0)
(2.0265479e-07 -5.29522066e-08 0)
(3.88211543e-07 -3.24362893e-07 0)
(3.03874392e-07 -3.54369852e-07 0)
(4.32575309e-08 -1.59007398e-07 0)
(-1.93912825e-07 9.56550089e-08 0)
(-2.56466905e-07 2.30053408e-07 0)
(-1.40903053e-07 1.8223162e-07 0)
(4.16992424e-08 2.87150664e-08 0)
(1.58026121e-07 -1.09794759e-07 0)
(7.16329267e-08 -1.18170183e-07 0)
(-3.08334363e-07 5.2487984e-07 0)
(-7.15392033e-07 7.07978413e-07 0)
(-4.2246235e-07 5.58817861e-07 0)
(-4.03035744e-08 1.72382452e-07 0)
(3.12712911e-07 -3.14753679e-07 0)
(4.796606e-07 -6.02339007e-07 0)
(3.53805335e-07 -5.07369751e-07 0)
(1.99488842e-08 -1.07187024e-07 0)
(-2.98646363e-07 3.27422186e-07 0)
(-3.98755473e-07 5.22505974e-07 0)
(-2.36958836e-07 3.81098087e-07 0)
(5.08245168e-08 3.22456161e-08 0)
(2.59384419e-07 -2.77050987e-07 0)
(2.64734218e-07 -3.61113377e-07 0)
(1.00580694e-07 -2.12263737e-07 0)
(-8.84875478e-08 2.22398926e-08 0)
(-1.67527132e-07 1.70448192e-07 0)
(-1.00889898e-07 1.59451512e-07 0)
(3.26946871e-08 3.34476183e-08 0)
(3.91946081e-08 -6.8308223e-08 0)
(-1.39084788e-07 1.07340806e-07 0)
(-5.54982221e-07 2.78868061e-07 0)
(-7.13343384e-07 3.19916839e-07 0)
(-5.86498164e-07 2.09205917e-07 0)
(-1.42330098e-07 -1.55064128e-08 0)
(3.61953323e-07 -2.17543164e-07 0)
(6.15198509e-07 -2.7430083e-07 0)
(4.77793988e-07 -1.6092914e-07 0)
(6.56234955e-08 4.00139866e-08 0)
(-3.39356054e-07 1.97044658e-07 0)
(-4.871204e-07 2.17946168e-07 0)
(-3.21921206e-07 1.06496083e-07 0)
(2.7431557e-09 -4.92559177e-08 0)
(2.54841831e-07 -1.45633192e-07 0)
(2.92677038e-07 -1.34729084e-07 0)
(1.46118073e-07 -4.77625673e-08 0)
(-3.69287628e-08 4.08093235e-08 0)
(-1.19328203e-07 7.37909914e-08 0)
(-7.21180032e-08 4.24935878e-08 0)
(-1.56661087e-08 -1.21787899e-08 0)
)
;

boundaryField
{
    top
    {
        type            calculated;
        value           uniform (-5.55111512e-15 0 0);
    }
    left
    {
        type            calculated;
        value           uniform (0 0 0);
    }
    right
    {
        type            calculated;
        value           uniform (0 0 0);
    }
    bottom
    {
        type            calculated;
        value           uniform (0 0 0);
    }
    back0
    {
        type            empty;
    }
    front1
    {
        type            empty;
    }
}


// ************************************************************************* //
