/*--------------------------------*- C++ -*----------------------------------*\
| =========                 |                                                 |
| \\      /  F ield         | OpenFOAM: The Open Source CFD Toolbox           |
|  \\    /   O peration     | Version:  3.0.1                                 |
|   \\  /    A nd           | Web:      www.OpenFOAM.org                      |
|    \\/     M anipulation  |                                                 |
\*---------------------------------------------------------------------------*/
FoamFile
{
    version     2.0;
    format      ascii;
    class       volScalarField;
    location    "10";
    object      magVorticity;
}
// * * * * * * * * * * * * * * * * * * * * * * * * * * * * * * * * * * * * * //

dimensions      [0 0 -1 0 0 0 0];

internalField   nonuniform List<scalar> 
400
(
0.00347019314
0.0221845701
0.0755170586
0.156108406
0.254454101
0.358690544
0.457259018
0.540229223
0.599920532
0.631138465
0.631252074
0.600220471
0.540607903
0.45758249
0.358850498
0.254412266
0.155913912
0.0752823135
0.0220149815
0.00355281458
0.0218570681
0.0761113262
0.1281041
0.186678248
0.251556431
0.318273218
0.380917436
0.433681216
0.471724297
0.491634079
0.491655181
0.471784251
0.433770959
0.381024537
0.318383857
0.251655372
0.186746475
0.128115757
0.0760345054
0.0216763096
0.0753328252
0.132300184
0.174101854
0.21091382
0.246757753
0.281835052
0.314345872
0.341749106
0.36158625
0.371991019
0.371977464
0.361565414
0.341771977
0.314471343
0.282098426
0.247141162
0.211330873
0.174407467
0.132330343
0.074974172
0.162176044
0.203668191
0.225096465
0.236099223
0.242668923
0.247868106
0.252763774
0.257268329
0.260797362
0.262735882
0.262728511
0.260810996
0.257394687
0.253108164
0.248492095
0.243536218
0.237046147
0.225845529
0.203891869
0.161606426
0.282044991
0.295149567
0.28656856
0.265744816
0.23993502
0.214143847
0.191481228
0.173666858
0.161526611
0.155399715
0.155416223
0.161627199
0.173982959
0.192164914
0.215285011
0.241479697
0.267443784
0.287984144
0.295735797
0.281301946
0.434347977
0.408436004
0.360421021
0.300489451
0.237244761
0.17729612
0.125311118
0.084332808
0.0561929535
0.0419006852
0.0419279305
0.0563468408
0.08480164
0.126320411
0.178995509
0.23958879
0.303149976
0.362772639
0.409645651
0.433583287
0.619556259
0.544059466
0.446464708
0.33879328
0.231436441
0.13258325
0.04816574
0.017848905
0.063008953
0.085928005
0.085943736
0.062951087
0.017437486
0.049284272
0.134684777
0.2345473
0.342544544
0.450033509
0.546256044
0.619098148
0.839525464
0.702185354
0.543057128
0.377212107
0.217452932
0.073646311
0.047271777
0.14084307
0.204443998
0.23666124
0.236825166
0.204780919
0.140930988
0.046546596
0.075693987
0.221035466
0.382010886
0.548083441
0.705839846
0.839948409
1.09750756
0.882743869
0.647103574
0.410205616
0.188018735
0.00785143
0.169874929
0.293726629
0.377236293
0.419443623
0.419921453
0.378445899
0.295043965
0.170420429
0.00673292
0.191378344
0.415708863
0.653702523
0.888420828
1.09970103
1.3981696
1.08514945
0.753480352
0.429411733
0.132938137
0.12278153
0.330437347
0.486868693
0.59131063
0.643954152
0.644973285
0.594058634
0.490463798
0.333573981
0.12400402
0.134821329
0.434805418
0.761507922
1.09345669
1.40339403
1.74784952
1.30760402
0.853724608
0.42220218
0.03788163
0.28536182
0.54206919
0.731987088
0.857215915
0.920105942
0.921938924
0.86231535
0.739187641
0.54955925
0.29094399
0.03632073
0.425987537
0.862574297
1.31908028
1.75776054
2.1551979
1.54564016
0.933494611
0.369131911
0.11752991
0.51424724
0.82055673
1.04197661
1.18562214
1.25737506
1.26029171
1.193903
1.0542161
0.83444905
0.52674999
0.12529899
0.368895889
0.941805845
1.56054196
2.17180755
2.63220549
1.78887523
0.967690461
0.239598254
0.36255811
0.83381768
1.18448707
1.43030729
1.58632446
1.66362104
1.66779451
1.59836649
1.44873157
1.20668325
0.85599262
0.37996021
0.231856188
0.972967741
1.80680199
2.65772486
3.19470508
2.0132942
0.910984558
0.01532093
0.73915961
1.27527865
1.65468771
1.90964427
2.06653339
2.14325838
2.1486169
2.08223008
1.93442289
1.68608633
1.30920821
0.7696578
0.03498489
0.909197477
2.03256242
3.23114954
3.85814452
2.16246382
0.679540808
0.473964601
1.30613507
1.87648168
2.25208866
2.48915647
2.62821218
2.69470447
2.70074616
2.64620259
2.5185102
2.29122734
1.92197171
1.35170327
0.509966125
0.665013643
2.17916331
3.90645653
4.61806727
2.10223496
0.116974411
1.25889839
2.14088092
2.67795317
2.99247834
3.16984142
3.26432424
3.30723184
3.31287566
3.2814914
3.19904377
3.03386914
2.73013774
2.19912047
1.31304037
0.083510729
2.10922571
4.67646478
5.38281772
1.5109028
1.06365024
2.54895702
3.33100655
3.71033798
3.87606102
3.93734995
3.95421914
3.95776117
3.96139933
3.96574105
3.95845959
3.90910631
3.75722588
3.39102287
2.61511352
1.11818774
1.49842174
5.44419926
5.62391112
0.391739701
3.35510611
4.56177246
4.9386033
4.96630745
4.87026422
4.75280945
4.6592179
4.6087675
4.60877943
4.65999256
4.75660452
4.88089278
4.98884033
4.97794517
4.61856062
3.41760432
0.427190025
5.67251626
2.59164177
5.39105666
7.4405775
7.42976024
6.90958346
6.35272117
5.88829952
5.54481984
5.3208575
5.20917533
5.20513704
5.30915428
5.52684107
5.86689546
6.33298848
6.89947797
7.43841623
7.46895733
5.41714979
2.61856007
14.0725103
16.3742619
13.6227995
10.8198515
8.91416207
7.63815881
6.77651125
6.21020497
5.86571467
5.70033658
5.69481791
5.84897185
6.18174528
6.73584402
7.58562655
8.85226239
10.7546112
13.5665675
16.3400212
14.0490603
)
;

boundaryField
{
    top
    {
        type            calculated;
        value           nonuniform List<scalar> 
20
(
25.0773522
24.5041776
18.0786563
13.0645384
10.1381822
8.37152105
7.25490555
6.5535157
6.13964516
5.94480827
5.93952769
6.12329352
6.52454813
7.21085905
8.30975461
10.0572368
12.9659604
17.9769843
24.432587
25.0365743
)
;
    }
    left
    {
        type            calculated;
        value           nonuniform List<scalar> 
20
(
0.012157229
3.777965e-05
0.0497007687
0.142373445
0.275552335
0.447202626
0.657559717
0.909284858
1.20742733
1.55967824
1.97732321
2.4774389
3.087158
3.85040097
4.83424902
6.12913701
7.82781034
9.65643159
8.24832099
10.9271635
)
;
    }
    right
    {
        type            calculated;
        value           nonuniform List<scalar> 
20
(
0.0122547548
0.00030713066
0.0490991668
0.141332207
0.274034124
0.445295002
0.655562033
0.907810885
1.20751616
1.56290524
1.98589697
2.49426083
3.11580061
3.89488026
4.89826311
6.21431613
7.93028671
9.75742353
8.31297203
10.8938709
)
;
    }
    bottom
    {
        type            calculated;
        value           nonuniform List<scalar> 
20
(
0.0118795289
0.00164895021
0.0535418104
0.143033118
0.256814124
0.379115133
0.495324111
0.59328497
0.663783433
0.700664709
0.700827743
0.664213154
0.593825286
0.495781237
0.379333836
0.256742972
0.142749699
0.053215342
0.00143218707
0.0119708471
)
;
    }
    back0
    {
        type            empty;
    }
    front1
    {
        type            empty;
    }
}


// ************************************************************************* //
