/*--------------------------------*- C++ -*----------------------------------*\
| =========                 |                                                 |
| \\      /  F ield         | OpenFOAM: The Open Source CFD Toolbox           |
|  \\    /   O peration     | Version:  3.0.1                                 |
|   \\  /    A nd           | Web:      www.OpenFOAM.org                      |
|    \\/     M anipulation  |                                                 |
\*---------------------------------------------------------------------------*/
FoamFile
{
    version     2.0;
    format      ascii;
    class       surfaceScalarField;
    location    "10";
    object      phi;
}
// * * * * * * * * * * * * * * * * * * * * * * * * * * * * * * * * * * * * * //

dimensions      [0 3 -1 0 0 0 0];

internalField   nonuniform List<scalar> 
760
(
1.48349846e-05
-1.48387371e-05
-2.06662791e-05
3.55012604e-05
-0.000112520509
9.18542153e-05
-0.000244614072
0.000132093577
-0.000396819903
0.000152205888
-0.000549709409
0.000152889582
-0.000686466894
0.000136757525
-0.000793771713
0.000107304782
-0.000862076831
6.83050147e-05
-0.000885638087
2.3561151e-05
-0.000862489353
-2.31487625e-05
-0.000794446597
-6.80426737e-05
-0.000687159332
-0.000107287108
-0.000550173377
-0.000136985816
-0.000396907596
-0.000153265745
-0.000244342246
-0.000152565444
-0.000112068617
-0.000132273805
-2.02875951e-05
-9.17811798e-05
1.49800716e-05
-3.52677089e-05
1.49801857e-05
-3.27941975e-05
1.79554696e-05
-0.000177270857
0.00017997797
-0.000430660815
0.000345244184
-0.000762837439
0.000464270177
-0.00113361736
0.000522985764
-0.00150161729
0.000520889491
-0.0018293724
0.000464512664
-0.00208620182
0.000364134267
-0.00224961322
0.000231716491
-0.00230590182
7.98497917e-05
-0.00225037848
-7.86721116e-05
-0.00208745816
-0.000230963051
-0.00183067137
-0.000364073956
-0.00150250436
-0.00046515284
-0.00113381144
-0.000521958638
-0.000762352234
-0.000524024596
-0.000429806259
-0.000464819705
-0.000176504991
-0.000345082348
-3.24528662e-05
-0.000179319669
-1.74727178e-05
-9.02044069e-05
0.000108159857
-0.000352893942
0.000442667557
-0.000760600127
0.000752950385
-0.00126723887
0.000970908916
-0.00181761786
0.00107336475
-0.00235581849
0.00105909013
-0.00283112893
0.000939823127
-0.00320177423
0.000734779614
-0.00343696469
0.000466906982
-0.00351787645
0.000160761557
-0.00343806464
-0.000158483944
-0.00320361232
-0.000465415412
-0.00283310476
-0.000734581525
-0.00235730378
-0.000940953783
-0.00181818873
-0.00106107364
-0.00126684681
-0.00107536648
-0.000759602307
-0.000972064206
-0.000351894551
-0.000752790115
-8.97161132e-05
-0.000441498046
-0.000107188959
-0.000142725044
0.000250884862
-0.000521155088
0.000821097638
-0.0010787766
0.00131057191
-0.0017492697
0.00164140202
-0.00246204163
0.00178613669
-0.0031489575
0.00174600601
-0.00374966692
0.00154053256
-0.00421508487
0.0012001976
-0.00450930153
0.000761123675
-0.00461045057
0.000261910598
-0.00451103972
-0.000257894811
-0.00421807546
-0.000758379697
-0.00375308474
-0.00119957227
-0.00315189484
-0.00154214365
-0.00246380701
-0.00174916142
-0.00174963505
-0.00178953839
-0.00107807146
-0.00164362777
-0.000520126931
-0.00131073464
-0.000142136774
-0.000819488174
-0.000249325873
-0.000191108057
0.0004419929
-0.000682218691
0.00131220827
-0.00138731957
0.00201567279
-0.00221710288
0.00247118533
-0.00308417083
0.00265320465
-0.00390865209
0.00257048729
-0.00462240387
0.00225428436
-0.00517146413
0.00174925788
-0.00551708645
0.00110674602
-0.00563593976
0.000380763933
-0.00552002214
-0.000373812423
-0.00517665204
-0.00110174981
-0.00462865283
-0.0017475715
-0.00391458195
-0.00225621453
-0.00308860632
-0.00257513703
-0.00221943919
-0.00265870547
-0.00138772964
-0.00247533726
-0.000681573715
-0.00201689053
-0.000190525664
-0.00131053619
-0.00043985161
-0.000238304762
0.000680297697
-0.000842095302
0.00191599878
-0.00169513979
0.00286871727
-0.00268291722
0.00345896276
-0.00369984109
0.00367012852
-0.00465445391
0.00352510012
-0.00547225692
0.00307208738
-0.00609649783
0.00237349879
-0.00648763896
0.00149788717
-0.0066223276
0.000515452598
-0.00649254214
-0.000503597862
-0.00610533276
-0.00148895918
-0.00548329032
-0.00236961394
-0.00466558452
-0.00307392035
-0.00370911769
-0.00353160386
-0.00268907207
-0.00367875107
-0.00169797537
-0.00346643392
-0.000842533561
-0.00287233229
-0.000237931384
-0.00191513834
-0.000677782964
-0.00028737787
0.000967675657
-0.00100782295
0.00263644381
-0.00201201713
0.00387291144
-0.00315754784
0.00460449347
-0.0043195004
0.00483208109
-0.00539549601
0.00460109573
-0.00630668139
0.00398327277
-0.00699609444
0.00306291186
-0.00742581814
0.00192761088
-0.00757414356
0.000663778047
-0.00743359634
-0.000644145057
-0.00701030747
-0.00191224804
-0.00632488075
-0.00305504064
-0.00541459498
-0.00398420613
-0.00433643089
-0.00460976797
-0.00317000742
-0.00484517455
-0.00201911823
-0.00461732309
-0.00101037792
-0.00388107258
-0.00028753563
-0.00263798062
-0.000965318489
-0.00034121235
0.0013088881
-0.00118606895
0.0034813004
-0.00234617488
0.00503301738
-0.00364749842
0.00590581701
-0.00494510434
0.00612968701
-0.00612756502
0.00578355641
-0.00711505482
0.00497076257
-0.00785418306
0.0038020401
-0.00831193747
0.0023853653
-0.0084704371
0.000822277696
-0.0083235047
-0.000791077433
-0.00787555466
-0.00236019805
-0.00714295003
-0.00378764525
-0.00615769332
-0.00496946284
-0.00497294299
-0.0057945183
-0.00366927805
-0.00614883951
-0.00235988192
-0.00592671925
-0.00119212034
-0.00504883417
-0.00034235611
-0.00348774488
-0.00130767449
-0.000402662359
0.0017115505
-0.00138288338
0.00446152146
-0.00270314651
0.00635328055
-0.00415277699
0.00735544752
-0.00556708734
0.00754399737
-0.00682952845
0.00704599752
-0.00786487576
0.00600610987
-0.0086288898
0.00456605415
-0.00909798406
0.00285445956
-0.00926099478
0.00098528843
-0.00911404269
-0.000938029504
-0.00865885381
-0.00281538691
-0.00790464504
-0.004541854
-0.00687353004
-0.00600057781
-0.00560910018
-0.00705894815
-0.00418713252
-0.00757080717
-0.00272616153
-0.00738769027
-0.00139412423
-0.00638087151
-0.00040538536
-0.00447648377
-0.00171305979
-0.000475110748
0.00218666118
-0.00160423018
0.00559064096
-0.00308522733
0.00783427776
-0.0046646898
0.00893491003
-0.00616057347
0.00903988106
-0.00745844172
0.00834386577
-0.00849632071
0.00704398886
-0.0092469442
0.00531667763
-0.00970204027
0.00330955563
-0.00986075405
0.00114400222
-0.00972275488
-0.00107602866
-0.00928598309
-0.00325215867
-0.00854900036
-0.00527883671
-0.00751809678
-0.00703148136
-0.00621927691
-0.008357768
-0.00471455771
-0.00907552636
-0.00312030242
-0.00898194556
-0.00162255977
-0.00787861419
-0.000480136743
-0.00561890682
-0.00219319656
-0.000563483915
0.00275014498
-0.00185696109
0.0068841182
-0.00349063226
0.00946794896
-0.00516238883
0.0106066667
-0.00667966494
0.0105571572
-0.00794251182
0.00960671267
-0.00891480728
0.00801628432
-0.00959640972
0.00599828006
-0.0100013148
0.00371446067
-0.0101429407
0.00128562819
-0.0100258834
-0.00119308595
-0.00964324042
-0.00363480168
-0.00897918589
-0.00594289122
-0.00801728988
-0.00799337735
-0.00675563251
-0.00961942534
-0.00522944097
-0.0106017179
-0.00353999238
-0.0106713941
-0.00188425646
-0.0095343501
-0.000571636255
-0.00693152701
-0.00276483289
-0.000675948467
0.00342609334
-0.00214982749
0.00835799725
-0.00391097498
0.0112290964
-0.00560625117
0.0123019429
-0.0070480271
0.0119989332
-0.00817076067
0.0107294463
-0.00898119883
0.0088267225
-0.00951808175
0.00653516299
-0.00982460459
0.0040209835
-0.00993193713
0.00139296073
-0.00985079019
-0.0012742329
-0.00956873118
-0.00391686068
-0.00905248796
-0.00645913443
-0.00825621156
-0.00878965374
-0.00713822157
-0.0107374153
-0.00568945421
-0.0120504852
-0.00397535299
-0.0123854953
-0.00218751958
-0.0113221835
-0.000688081037
-0.00843096551
-0.00345291399
-0.000826648515
0.00425274185
-0.00249342099
0.0100247697
-0.00432418435
0.0130598598
-0.00592459566
0.0139023541
-0.00714291346
0.013217251
-0.00797782151
0.0115643544
-0.00849943323
0.00934833426
-0.00879640133
0.00683213111
-0.00894570089
0.00417028307
-0.0089976468
0.00144490663
-0.00896948437
-0.00130239533
-0.00884345458
-0.00404289047
-0.0085680408
-0.0067345482
-0.00806387608
-0.00929381846
-0.00723867592
-0.0115626155
-0.00601823938
-0.0132709217
-0.00440132832
-0.0140024064
-0.00254175591
-0.0131817558
-0.000843508685
-0.0101292127
-0.0042964227
-0.00103952312
0.00529226507
-0.00289549009
0.0118807366
-0.00467633793
0.0148407076
-0.00598720131
0.0152132175
-0.00676819869
0.0139982484
-0.00712210004
0.0119182557
-0.00720203283
0.0094282671
-0.00715181597
0.00678191429
-0.00708046871
0.00409893584
-0.00705437506
0.00141881298
-0.00709612687
-0.00126064352
-0.00718439476
-0.00395462259
-0.00725315068
-0.00666579227
-0.00719198974
-0.00935497939
-0.00685341913
-0.0119011861
-0.00607860054
-0.0140457403
-0.00475889043
-0.0153221164
-0.00295227289
-0.0149883733
-0.00106146518
-0.0120200204
-0.00535788784
-0.00135025153
0.00664251674
-0.00334025603
0.0138707411
-0.00483768102
0.0163381325
-0.00555404826
0.0159295847
-0.00561056919
0.0140547693
-0.00525650321
0.0115641897
-0.00473591667
0.00890768058
-0.00423859807
0.00628459572
-0.00389222399
0.0037525618
-0.00376902852
0.00129561754
-0.00389327273
-0.00113639931
-0.00424393219
-0.00360396314
-0.00475113515
-0.00615858931
-0.00528768983
-0.0088184247
-0.0056613139
-0.011527562
-0.00562172842
-0.0140853258
-0.00491056654
-0.0160332783
-0.00339873244
-0.0165002074
-0.00137654979
-0.014042203
-0.00673443758
-0.00179037816
0.008432895
-0.00371836139
0.0157987244
-0.00450183541
0.0171216066
-0.00418179653
0.0156095458
-0.00317451651
0.0130474892
-0.00189546702
0.0102851402
-0.000655569769
0.00766778332
0.000344295309
0.00528473066
0.000987448095
0.00310940905
0.0012145003
0.00106856537
0.00100600299
-0.000927901988
0.000376740866
-0.002974701
-0.000618094018
-0.00516375442
-0.0018647433
-0.00757177542
-0.00316256875
-0.0102297365
-0.00419629307
-0.0130516015
-0.00454020591
-0.0156893655
-0.00376394185
-0.0172764715
-0.00181751161
-0.0159886333
-0.00855194915
-0.00230764284
0.0107405378
-0.00363211775
0.0171231993
-0.00297442395
0.0164639128
-0.00106889374
0.0137040157
0.00129962233
0.0106789732
0.00360817672
0.00797658581
0.00556237799
0.00571358201
0.00701811542
0.00382899321
0.00791404665
0.00221347783
0.00822761939
0.000754992668
0.00795212833
-0.000652410884
0.00708964864
-0.00211222128
0.00565786608
-0.00373197185
0.00371317401
-0.00562708335
0.00139571622
-0.00791227875
-0.00100056607
-0.0106553192
-0.00294595428
-0.0137439773
-0.00363940843
-0.0165830174
-0.00232572291
-0.0173023188
-0.0108776721
-0.00251428319
0.0132548209
-0.00191886169
0.0165277779
0.00123204954
0.0133130017
0.00516960704
0.00976645825
0.00890995222
0.00693862803
0.0120477008
0.0048388372
0.0144621919
0.00329909085
0.0161533072
0.00213787786
0.0171566123
0.00121017275
0.0175035783
0.000408026721
0.017205308
-0.000354140567
0.0162480109
-0.00115492411
0.0145966908
-0.00208065176
0.012210738
-0.00324113054
0.00908363904
-0.0047851798
0.00532950023
-0.00690118035
0.00135184668
-0.00976632369
-0.00185633293
-0.0133748377
-0.0025026336
-0.0166560181
-0.0133803057
-0.000525870626
0.0137806915
0.00469116539
0.0113107419
0.0111379057
0.0068662614
0.0167191968
0.00418516723
0.0210437613
0.00261406354
0.0242217883
0.00166081017
0.0264601189
0.00106076023
0.0279395592
0.00065843754
0.0287868703
0.00036286173
0.0290749923
0.000119904737
0.0288276842
-0.00010683249
0.0280213582
-0.000348597976
0.0265824981
-0.000641791648
0.0243820565
-0.00104068904
0.0212339726
-0.00163709588
0.0169223245
-0.00258953224
0.0113261641
-0.00417016327
0.00483124081
-0.00687991446
-0.000460418936
-0.0113643583
-0.0138407246
0.0137806914
0.0250914333
0.0319576946
0.0361428618
0.0387569254
0.0404177357
0.041478496
0.0421369336
0.0424997952
0.0426196999
0.0425128673
0.0421642694
0.0415224778
0.0404817888
0.0388446929
0.0362551607
0.0320849974
0.0252050829
0.0138407246
)
;

boundaryField
{
    top
    {
        type            calculated;
        value           uniform 0;
    }
    left
    {
        type            calculated;
        value           uniform 0;
    }
    right
    {
        type            calculated;
        value           uniform 0;
    }
    bottom
    {
        type            calculated;
        value           uniform 0;
    }
    back0
    {
        type            empty;
        value           nonuniform 0();
    }
    front1
    {
        type            empty;
        value           nonuniform 0();
    }
}


// ************************************************************************* //
