/*--------------------------------*- C++ -*----------------------------------*\
| =========                 |                                                 |
| \\      /  F ield         | OpenFOAM: The Open Source CFD Toolbox           |
|  \\    /   O peration     | Version:  3.0.0                                 |
|   \\  /    A nd           | Web:      www.OpenFOAM.org                      |
|    \\/     M anipulation  |                                                 |
\*---------------------------------------------------------------------------*/
FoamFile
{
    version     2.0;
    format      ascii;
    class       volScalarField;
    location    "1";
    object      p;
}
// * * * * * * * * * * * * * * * * * * * * * * * * * * * * * * * * * * * * * //

dimensions      [0 2 -2 0 0 0 0];

internalField   nonuniform List<scalar> 
400
(
2.27405e-05
-0.0581624
-0.13045
-0.186291
-0.207251
-0.185006
-0.118928
-0.0139267
0.121314
0.275677
0.436664
0.591295
0.726971
0.832414
0.898773
0.92104
0.899857
0.843687
0.771171
0.712984
0.0576819
-0.002099
-0.0587948
-0.0973217
-0.108518
-0.086531
-0.0306169
0.0556744
0.165753
0.290966
0.421444
0.546885
0.657335
0.744007
0.80017
0.822188
0.810811
0.772001
0.715109
0.655367
0.134157
0.0513515
-0.0100188
-0.0456109
-0.0547463
-0.0341828
0.0160159
0.0923966
0.189167
0.2989
0.413164
0.523155
0.620349
0.697173
0.747677
0.768305
0.758984
0.723065
0.661443
0.578668
0.204829
0.0902621
0.0139091
-0.0267071
-0.0378342
-0.0185356
0.0299153
0.103421
0.196132
0.300969
0.410068
0.515253
0.608547
0.682683
0.731606
0.751067
0.739759
0.698729
0.621993
0.507368
0.253526
0.105293
0.0109628
-0.036821
-0.0502292
-0.030379
0.0201115
0.0961606
0.191426
0.298718
0.410268
0.518058
0.614176
0.691182
0.742452
0.762679
0.749159
0.700873
0.605962
0.457469
0.268662
0.0859605
-0.0271605
-0.0818915
-0.0958274
-0.0720537
-0.0146806
0.0699533
0.17469
0.291892
0.413556
0.531483
0.637482
0.723585
0.782246
0.806789
0.79293
0.73765
0.623687
0.440364
0.24021
0.0218628
-0.109773
-0.169437
-0.18029
-0.147574
-0.0771569
0.0230799
0.144897
0.279977
0.419872
0.556002
0.679678
0.782149
0.854646
0.888791
0.878409
0.818246
0.685455
0.465916
0.157398
-0.0984461
-0.247318
-0.307966
-0.310019
-0.261439
-0.170285
-0.0463125
0.100953
0.262406
0.429107
0.592063
0.742029
0.86934
0.963758
1.01482
1.01395
0.953045
0.802689
0.544827
0.0068394
-0.28902
-0.452543
-0.507788
-0.492691
-0.418961
-0.297503
-0.140323
0.041646
0.238564
0.441151
0.640184
0.826004
0.988063
1.11449
1.19229
1.20977
1.15484
0.98956
0.690579
-0.229291
-0.568098
-0.741476
-0.781361
-0.73714
-0.625893
-0.462257
-0.260864
-0.0340354
0.207942
0.45587
0.700756
0.932945
1.14128
1.31224
1.42987
1.47835
1.43987
1.26465
0.921357
-0.575709
-0.96017
-1.13452
-1.14345
-1.05289
-0.887652
-0.667162
-0.408943
-0.126393
0.170385
0.473067
0.773728
1.06352
1.33131
1.56223
1.73703
1.83464
1.82898
1.65309
1.26262
-1.06815
-1.49908
-1.65782
-1.61104
-1.44922
-1.20806
-0.912775
-0.583643
-0.234319
0.126437
0.492458
0.858218
1.21698
1.55883
1.86841
2.1233
2.29607
2.34905
2.18981
1.75143
-1.76126
-2.23294
-2.34471
-2.20253
-1.93333
-1.58727
-1.19575
-0.780718
-0.354371
0.0777775
0.513628
0.951959
1.3901
1.82134
2.23165
2.59656
2.88186
3.03458
2.92453
2.4445
-2.74487
-3.23204
-3.23653
-2.93504
-2.50657
-2.01826
-1.50605
-0.99066
-0.479621
0.027703
0.535877
1.05048
1.57558
2.1107
2.64646
3.15948
3.61047
3.92852
3.92981
3.43488
-4.17745
-4.60036
-4.37984
-3.81684
-3.15675
-2.48068
-1.8228
-1.19616
-0.598323
-0.0184523
0.557857
1.14589
1.75965
2.4091
3.09507
3.802
4.4921
5.07956
5.31263
4.88574
-6.34322
-6.48578
-5.81649
-4.83464
-3.84761
-2.93383
-2.11031
-1.37031
-0.693337
-0.053393
0.57705
1.22571
1.91986
2.68497
3.54036
4.49082
5.51599
6.53205
7.22417
7.08736
-9.75186
-9.07981
-7.56451
-5.94263
-4.51406
-3.31583
-2.3197
-1.47906
-0.744397
-0.0692545
0.589479
1.27362
2.02619
2.89339
3.9242
5.16417
6.63919
8.30662
9.85898
10.5558
-15.5433
-12.6187
-9.51834
-6.98633
-5.01738
-3.52003
-2.37789
-1.47714
-0.727257
-0.0583096
0.587958
1.26608
2.03433
2.96267
4.14157
5.68499
7.70867
10.2996
13.4579
16.4393
-26.6989
-17.2351
-10.9792
-7.32481
-4.90989
-3.25996
-2.11099
-1.26486
-0.591676
-0.00632884
0.554975
1.14986
1.84215
2.71705
3.90467
5.60434
8.08268
11.8139
18.1588
27.7254
-45.35
-21.7257
-10.5196
-6.01118
-3.66543
-2.26804
-1.38773
-0.77978
-0.311057
0.0921553
0.47916
0.892794
1.38231
2.02125
2.94242
4.392
6.80873
11.4143
22.7344
46.4739
)
;

boundaryField
{
    top
    {
        type            zeroGradient;
    }
    left
    {
        type            zeroGradient;
    }
    right
    {
        type            zeroGradient;
    }
    bottom
    {
        type            zeroGradient;
    }
    back0
    {
        type            empty;
    }
    front1
    {
        type            empty;
    }
}


// ************************************************************************* //
