/*--------------------------------*- C++ -*----------------------------------*\
| =========                 |                                                 |
| \\      /  F ield         | OpenFOAM: The Open Source CFD Toolbox           |
|  \\    /   O peration     | Version:  3.0.0                                 |
|   \\  /    A nd           | Web:      www.OpenFOAM.org                      |
|    \\/     M anipulation  |                                                 |
\*---------------------------------------------------------------------------*/
FoamFile
{
    version     2.0;
    format      ascii;
    class       surfaceScalarField;
    location    "1";
    object      phi;
}
// * * * * * * * * * * * * * * * * * * * * * * * * * * * * * * * * * * * * * //

dimensions      [0 3 -1 0 0 0 0];

internalField   nonuniform List<scalar> 
760
(
1.48268e-05
-1.48467e-05
-2.06702e-05
3.5497e-05
-0.000112522
9.18521e-05
-0.000244614
0.000132092
-0.000396819
0.000152205
-0.000549708
0.000152889
-0.000686465
0.000136757
-0.000793769
0.000107304
-0.000862074
6.83047e-05
-0.000885635
2.3561e-05
-0.000862486
-2.31487e-05
-0.000794444
-6.80425e-05
-0.000687157
-0.000107287
-0.000550172
-0.000136985
-0.000396906
-0.000153265
-0.000244342
-0.000152565
-0.000112068
-0.000132273
-2.02875e-05
-9.17809e-05
1.498e-05
-3.52676e-05
1.49801e-05
-3.27982e-05
1.79515e-05
-0.000177274
0.000179973
-0.000430663
0.00034524
-0.000762837
0.000464267
-0.00113361
0.000522983
-0.00150161
0.000520887
-0.00182937
0.000464511
-0.00208619
0.000364133
-0.00224961
0.000231715
-0.00230589
7.98494e-05
-0.00225037
-7.86719e-05
-0.00208745
-0.000230962
-0.00183066
-0.000364073
-0.0015025
-0.000465151
-0.00113381
-0.000521957
-0.00076235
-0.000524023
-0.000429805
-0.000464818
-0.000176504
-0.000345081
-3.24528e-05
-0.000179319
-1.74727e-05
-9.02059e-05
0.000108157
-0.000352896
0.000442663
-0.0007606
0.000752945
-0.00126724
0.000970903
-0.00181761
0.00107336
-0.00235581
0.00105909
-0.00283112
0.000939819
-0.00320176
0.000734776
-0.00343695
0.000466905
-0.00351786
0.000160761
-0.00343805
-0.000158483
-0.0032036
-0.000465414
-0.0028331
-0.000734579
-0.0023573
-0.00094095
-0.00181818
-0.00106107
-0.00126684
-0.00107536
-0.0007596
-0.000972061
-0.000351893
-0.000752788
-8.97158e-05
-0.000441497
-0.000107189
-0.000142725
0.000250883
-0.000521155
0.000821093
-0.00107878
0.00131057
-0.00174927
0.00164139
-0.00246204
0.00178613
-0.00314895
0.001746
-0.00374966
0.00154053
-0.00421507
0.00120019
-0.00450929
0.00076112
-0.00461044
0.000261909
-0.00451103
-0.000257894
-0.00421806
-0.000758377
-0.00375307
-0.00119957
-0.00315189
-0.00154214
-0.0024638
-0.00174916
-0.00174963
-0.00178953
-0.00107807
-0.00164362
-0.000520125
-0.00131073
-0.000142136
-0.000819486
-0.000249325
-0.000191108
0.000441991
-0.000682218
0.0013122
-0.00138732
0.00201566
-0.0022171
0.00247118
-0.00308416
0.00265319
-0.00390864
0.00257048
-0.00462239
0.00225428
-0.00517145
0.00174925
-0.00551707
0.00110674
-0.00563592
0.000380762
-0.00552001
-0.000373811
-0.00517664
-0.00110175
-0.00462864
-0.00174757
-0.00391457
-0.00225621
-0.0030886
-0.00257513
-0.00221943
-0.0026587
-0.00138773
-0.00247533
-0.000681572
-0.00201688
-0.000190525
-0.00131053
-0.00043985
-0.000238304
0.000680295
-0.000842094
0.00191599
-0.00169514
0.00286871
-0.00268291
0.00345895
-0.00369983
0.00367012
-0.00465444
0.00352509
-0.00547225
0.00307208
-0.00609648
0.00237349
-0.00648762
0.00149788
-0.00662231
0.00051545
-0.00649253
-0.000503596
-0.00610532
-0.00148895
-0.00548328
-0.00236961
-0.00466557
-0.00307391
-0.00370911
-0.00353159
-0.00268907
-0.00367874
-0.00169797
-0.00346642
-0.000842532
-0.00287232
-0.000237931
-0.00191513
-0.000677781
-0.000287378
0.000967673
-0.00100782
0.00263644
-0.00201201
0.0038729
-0.00315754
0.00460448
-0.00431949
0.00483207
-0.00539549
0.00460108
-0.00630667
0.00398326
-0.00699608
0.0030629
-0.00742581
0.0019276
-0.00757413
0.000663776
-0.00743358
-0.000644143
-0.0070103
-0.00191224
-0.00632487
-0.00305503
-0.00541459
-0.00398419
-0.00433642
-0.00460976
-0.00317
-0.00484516
-0.00201911
-0.00461731
-0.00101038
-0.00388106
-0.000287535
-0.00263797
-0.000965316
-0.000341212
0.00130889
-0.00118607
0.00348129
-0.00234617
0.00503301
-0.00364749
0.0059058
-0.0049451
0.00612967
-0.00612756
0.00578354
-0.00711505
0.00497075
-0.00785417
0.00380203
-0.00831193
0.00238536
-0.00847043
0.000822275
-0.00832349
-0.000791076
-0.00787555
-0.00236019
-0.00714294
-0.00378764
-0.00615769
-0.00496945
-0.00497294
-0.0057945
-0.00366927
-0.00614882
-0.00235988
-0.00592671
-0.00119212
-0.00504882
-0.000342356
-0.00348774
-0.00130767
-0.000402662
0.00171155
-0.00138288
0.00446151
-0.00270315
0.00635327
-0.00415277
0.00735543
-0.00556708
0.00754398
-0.00682952
0.00704598
-0.00786487
0.0060061
-0.00862888
0.00456604
-0.00909798
0.00285445
-0.00926099
0.000985286
-0.00911404
-0.000938028
-0.00865885
-0.00281538
-0.00790464
-0.00454184
-0.00687353
-0.00600056
-0.0056091
-0.00705893
-0.00418713
-0.00757079
-0.00272616
-0.00738768
-0.00139412
-0.00638086
-0.000405385
-0.00447648
-0.00171306
-0.000475111
0.00218666
-0.00160423
0.00559063
-0.00308523
0.00783426
-0.00466469
0.00893489
-0.00616057
0.00903986
-0.00745844
0.00834385
-0.00849632
0.00704397
-0.00924694
0.00531667
-0.00970204
0.00330955
-0.00986075
0.001144
-0.00972275
-0.00107603
-0.00928598
-0.00325215
-0.008549
-0.00527883
-0.0075181
-0.00703147
-0.00621928
-0.00835775
-0.00471456
-0.00907551
-0.0031203
-0.00898193
-0.00162256
-0.0078786
-0.000480137
-0.0056189
-0.00219319
-0.000563484
0.00275014
-0.00185696
0.00688411
-0.00349063
0.00946794
-0.00516239
0.0106067
-0.00667967
0.0105571
-0.00794251
0.0096067
-0.00891481
0.00801627
-0.00959641
0.00599827
-0.0100013
0.00371445
-0.0101429
0.00128563
-0.0100259
-0.00119308
-0.00964324
-0.0036348
-0.00897919
-0.00594288
-0.00801729
-0.00799336
-0.00675563
-0.00961941
-0.00522944
-0.0106017
-0.00353999
-0.0106714
-0.00188426
-0.00953434
-0.000571636
-0.00693152
-0.00276483
-0.000675949
0.00342609
-0.00214983
0.00835799
-0.00391098
0.0112291
-0.00560625
0.0123019
-0.00704803
0.0119989
-0.00817077
0.0107294
-0.00898121
0.00882671
-0.00951809
0.00653515
-0.00982461
0.00402098
-0.00993194
0.00139296
-0.0098508
-0.00127423
-0.00956874
-0.00391685
-0.00905249
-0.00645912
-0.00825622
-0.00878964
-0.00713823
-0.0107374
-0.00568946
-0.0120505
-0.00397535
-0.0123855
-0.00218752
-0.0113222
-0.000688081
-0.00843096
-0.00345291
-0.000826649
0.00425274
-0.00249342
0.0100248
-0.00432419
0.0130598
-0.0059246
0.0139023
-0.00714292
0.0132172
-0.00797783
0.0115643
-0.00849944
0.00934832
-0.00879641
0.00683212
-0.00894571
0.00417028
-0.00899766
0.0014449
-0.0089695
-0.00130239
-0.00884347
-0.00404288
-0.00856805
-0.00673454
-0.00806388
-0.00929381
-0.00723868
-0.0115626
-0.00601824
-0.0132709
-0.00440133
-0.0140024
-0.00254176
-0.0131817
-0.000843509
-0.0101292
-0.00429642
-0.00103952
0.00529226
-0.00289549
0.0118807
-0.00467634
0.0148407
-0.00598721
0.0152132
-0.00676821
0.0139982
-0.00712211
0.0119182
-0.00720204
0.00942826
-0.00715183
0.00678191
-0.00708048
0.00409893
-0.00705439
0.00141881
-0.00709614
-0.00126064
-0.00718441
-0.00395462
-0.00725316
-0.00666578
-0.007192
-0.00935497
-0.00685343
-0.0119012
-0.00607861
-0.0140457
-0.00475889
-0.0153221
-0.00295227
-0.0149884
-0.00106147
-0.01202
-0.00535789
-0.00135025
0.00664252
-0.00334026
0.0138707
-0.00483768
0.0163381
-0.00555405
0.0159296
-0.00561058
0.0140548
-0.00525651
0.0115642
-0.00473593
0.00890767
-0.00423861
0.00628459
-0.00389224
0.00375256
-0.00376904
0.00129562
-0.00389329
-0.0011364
-0.00424395
-0.00360396
-0.00475115
-0.00615858
-0.0052877
-0.00881842
-0.00566132
-0.0115276
-0.00562173
-0.0140853
-0.00491057
-0.0160333
-0.00339873
-0.0165002
-0.00137655
-0.0140422
-0.00673444
-0.00179038
0.00843289
-0.00371836
0.0157987
-0.00450184
0.0171216
-0.0041818
0.0156095
-0.00317453
0.0130475
-0.00189548
0.0102851
-0.000655583
0.00766778
0.00034428
0.00528473
0.000987432
0.00310941
0.00121448
0.00106856
0.00100599
-0.000927901
0.000376726
-0.0029747
-0.000618107
-0.00516375
-0.00186475
-0.00757177
-0.00316258
-0.0102297
-0.0041963
-0.0130516
-0.00454021
-0.0156894
-0.00376394
-0.0172765
-0.00181751
-0.0159886
-0.00855195
-0.00230764
0.0107405
-0.00363212
0.0171232
-0.00297443
0.0164639
-0.0010689
0.013704
0.00129961
0.010679
0.00360817
0.00797658
0.00556237
0.00571358
0.0070181
0.00382899
0.00791403
0.00221348
0.0082276
0.000754992
0.00795211
-0.00065241
0.00708963
-0.00211222
0.00565785
-0.00373197
0.00371316
-0.00562708
0.00139571
-0.00791228
-0.00100057
-0.0106553
-0.00294596
-0.013744
-0.00363941
-0.016583
-0.00232572
-0.0173023
-0.0108777
-0.00251428
0.0132548
-0.00191886
0.0165278
0.00123205
0.013313
0.0051696
0.00976646
0.00890995
0.00693863
0.0120477
0.00483884
0.0144622
0.00329909
0.0161533
0.00213788
0.0171566
0.00121017
0.0175036
0.000408026
0.0172053
-0.00035414
0.016248
-0.00115492
0.0145967
-0.00208065
0.0122107
-0.00324113
0.00908363
-0.00478518
0.0053295
-0.00690118
0.00135184
-0.00976632
-0.00185633
-0.0133748
-0.00250263
-0.016656
-0.0133803
-0.000525871
0.0137807
0.00469116
0.0113107
0.0111379
0.00686626
0.0167192
0.00418517
0.0210438
0.00261406
0.0242218
0.00166081
0.0264601
0.00106076
0.0279396
0.000658437
0.0287869
0.000362861
0.029075
0.000119905
0.0288277
-0.000106832
0.0280214
-0.000348598
0.0265825
-0.000641791
0.0243821
-0.00104069
0.021234
-0.0016371
0.0169223
-0.00258953
0.0113262
-0.00417016
0.00483124
-0.00687991
-0.000460419
-0.0113644
-0.0138407
0.0137807
0.0250914
0.0319577
0.0361429
0.0387569
0.0404177
0.0414785
0.0421369
0.0424998
0.0426197
0.0425129
0.0421643
0.0415225
0.0404818
0.0388447
0.0362552
0.032085
0.0252051
0.0138407
)
;

boundaryField
{
    top
    {
        type            calculated;
        value           uniform 0;
    }
    left
    {
        type            calculated;
        value           uniform 0;
    }
    right
    {
        type            calculated;
        value           uniform 0;
    }
    bottom
    {
        type            calculated;
        value           uniform 0;
    }
    back0
    {
        type            empty;
        value           nonuniform 0();
    }
    front1
    {
        type            empty;
        value           nonuniform 0();
    }
}


// ************************************************************************* //
