/*--------------------------------*- C++ -*----------------------------------*\
| =========                 |                                                 |
| \\      /  F ield         | OpenFOAM: The Open Source CFD Toolbox           |
|  \\    /   O peration     | Version:  3.0.0                                 |
|   \\  /    A nd           | Web:      www.OpenFOAM.org                      |
|    \\/     M anipulation  |                                                 |
\*---------------------------------------------------------------------------*/
FoamFile
{
    version     2.0;
    format      ascii;
    class       volVectorField;
    location    "1";
    object      U;
}
// * * * * * * * * * * * * * * * * * * * * * * * * * * * * * * * * * * * * * //

dimensions      [0 1 -1 0 0 0 0];

internalField   nonuniform List<vector> 
400
(
(0.000259015 -0.000255147 0)
(0.000163143 0.000103468 0)
(-0.00114132 0.00056291 0)
(-0.00345164 0.00089267 0)
(-0.00637456 0.00105975 0)
(-0.00950136 0.00107585 0)
(-0.0124624 0.000965759 0)
(-0.0149528 0.000758484 0)
(-0.0167424 0.000482987 0)
(-0.0176781 0.00016694 0)
(-0.0176825 -0.00016299 0)
(-0.016754 -0.000480341 0)
(-0.0149673 -0.000757968 0)
(-0.0124747 -0.000967394 0)
(-0.00950711 -0.0010788 0)
(-0.00637235 -0.00106259 0)
(-0.00344361 -0.000894001 0)
(-0.00113223 -0.000562117 0)
(0.00016879 -0.000101407 0)
(0.000260556 0.000256261 0)
(-6.3677e-05 -0.000192864 0)
(-0.00156383 0.00161118 0)
(-0.00562134 0.00360992 0)
(-0.0116624 0.00506514 0)
(-0.0188876 0.0057989 0)
(-0.0264616 0.00581603 0)
(-0.0335807 0.00520262 0)
(-0.0395527 0.00408407 0)
(-0.043841 0.00260079 0)
(-0.0460816 0.000897205 0)
(-0.0460898 -0.000881777 0)
(-0.0438628 -0.00259069 0)
(-0.0395803 -0.00408264 0)
(-0.0336042 -0.00520995 0)
(-0.026473 -0.00582868 0)
(-0.018884 -0.0058111 0)
(-0.0116473 -0.0050712 0)
(-0.00560338 -0.00360722 0)
(-0.0015519 -0.00160273 0)
(-6.01314e-05 0.000198536 0)
(-0.000508075 0.00103298 0)
(-0.00364518 0.00566224 0)
(-0.0104978 0.010212 0)
(-0.0199305 0.0134777 0)
(-0.0307793 0.0150698 0)
(-0.0419249 0.0149605 0)
(-0.052286 0.0133219 0)
(-0.0609226 0.0104364 0)
(-0.0671016 0.00663924 0)
(-0.0703239 0.00228747 0)
(-0.0703357 -0.00225412 0)
(-0.0671332 -0.00661749 0)
(-0.0609636 -0.0104336 0)
(-0.0523231 -0.0133384 0)
(-0.0419465 -0.014989 0)
(-0.0307803 -0.0150978 0)
(-0.0199143 -0.0134927 0)
(-0.0104753 -0.0102076 0)
(-0.00362888 -0.00564387 0)
(-0.00050288 -0.00101879 0)
(-0.000901533 0.00337411 0)
(-0.00561472 0.0121026 0)
(-0.015216 0.0199185 0)
(-0.027896 0.0253347 0)
(-0.0420805 0.0278174 0)
(-0.0563929 0.0273453 0)
(-0.0695394 0.0242144 0)
(-0.0804102 0.0189084 0)
(-0.0881484 0.0120071 0)
(-0.0921739 0.00413331 0)
(-0.0921924 -0.00407341 0)
(-0.0881987 -0.011967 0)
(-0.0804784 -0.0189011 0)
(-0.0696067 -0.0242411 0)
(-0.0564421 -0.0273944 0)
(-0.0421017 -0.027868 0)
(-0.0278901 -0.0253649 0)
(-0.0151953 -0.0199157 0)
(-0.0055961 -0.0120735 0)
(-0.000894868 -0.0033487 0)
(-0.00124878 0.00671911 0)
(-0.00746753 0.0208066 0)
(-0.0197752 0.032556 0)
(-0.0356414 0.0403582 0)
(-0.0530356 0.0436521 0)
(-0.0703146 0.0425093 0)
(-0.0859993 0.0374147 0)
(-0.0988567 0.0291035 0)
(-0.107956 0.01844 0)
(-0.112678 0.00634465 0)
(-0.112709 -0.00624105 0)
(-0.108042 -0.0183675 0)
(-0.0989771 -0.0290831 0)
(-0.0861271 -0.0374501 0)
(-0.0704226 -0.0425845 0)
(-0.0531044 -0.0437361 0)
(-0.0356665 -0.0404159 0)
(-0.0197684 -0.0325645 0)
(-0.00745104 -0.0207705 0)
(-0.00124127 -0.00668124 0)
(-0.00158017 0.0110107 0)
(-0.00929262 0.0317465 0)
(-0.0243212 0.0481287 0)
(-0.0433743 0.0585359 0)
(-0.0639229 0.0625111 0)
(-0.0840448 0.0603349 0)
(-0.102093 0.0527732 0)
(-0.116752 0.0408773 0)
(-0.12706 0.0258361 0)
(-0.132395 0.00888907 0)
(-0.132446 -0.00871103 0)
(-0.127204 -0.0257053 0)
(-0.116959 -0.0408271 0)
(-0.102325 -0.0528123 0)
(-0.0842566 -0.0604435 0)
(-0.064081 -0.0626455 0)
(-0.0434628 -0.0586431 0)
(-0.0243482 -0.0481683 0)
(-0.00928634 -0.0317151 0)
(-0.00157322 -0.0109621 0)
(-0.00192626 0.016255 0)
(-0.0111929 0.0449647 0)
(-0.0290279 0.0666848 0)
(-0.051308 0.0798754 0)
(-0.074961 0.0843336 0)
(-0.0977821 0.0806967 0)
(-0.117988 0.0701284 0)
(-0.134227 0.0540739 0)
(-0.145564 0.034086 0)
(-0.151415 0.0117325 0)
(-0.151496 -0.0114321 0)
(-0.145793 -0.0338557 0)
(-0.134564 -0.0539651 0)
(-0.118376 -0.0701596 0)
(-0.0981554 -0.0808459 0)
(-0.0752629 -0.0845424 0)
(-0.0515043 -0.0800661 0)
(-0.0291175 -0.0667896 0)
(-0.0112093 -0.0449616 0)
(-0.00192231 -0.0162027 0)
(-0.00231586 0.0225188 0)
(-0.0132686 0.0605806 0)
(-0.0340569 0.0883109 0)
(-0.0596048 0.104368 0)
(-0.0862452 0.108997 0)
(-0.111508 0.10338 0)
(-0.133533 0.0892235 0)
(-0.151009 0.0684553 0)
(-0.163101 0.0430258 0)
(-0.169321 0.0148224 0)
(-0.16944 -0.0143329 0)
(-0.163442 -0.0426373 0)
(-0.15152 -0.0682453 0)
(-0.134134 -0.0892264 0)
(-0.112108 -0.103575 0)
(-0.0867559 -0.10931 0)
(-0.0599643 -0.10469 0)
(-0.034247 -0.0885329 0)
(-0.0133249 -0.0606459 0)
(-0.00231859 -0.0224774 0)
(-0.00277919 0.0299257 0)
(-0.0156192 0.0787851 0)
(-0.0395457 0.11311 0)
(-0.068343 0.131942 0)
(-0.0976948 0.136245 0)
(-0.12492 0.127998 0)
(-0.148186 0.109628 0)
(-0.166341 0.0836378 0)
(-0.178753 0.0523949 0)
(-0.185108 0.0180718 0)
(-0.185274 -0.0173093 0)
(-0.179227 -0.0517728 0)
(-0.167061 -0.0832684 0)
(-0.149051 -0.10957 0)
(-0.125809 -0.128239 0)
(-0.0984818 -0.136697 0)
(-0.0689278 -0.132456 0)
(-0.0398815 -0.113521 0)
(-0.0157376 -0.0789797 0)
(-0.00279365 -0.0299204 0)
(-0.00335559 0.0386598 0)
(-0.018359 0.0998285 0)
(-0.0456106 0.141149 0)
(-0.0774898 0.162368 0)
(-0.108991 0.165574 0)
(-0.13734 0.153875 0)
(-0.160906 0.130632 0)
(-0.17887 0.0990102 0)
(-0.190943 0.0617851 0)
(-0.197081 0.0213406 0)
(-0.197293 -0.0202106 0)
(-0.191557 -0.0608421 0)
(-0.179813 -0.0984095 0)
(-0.162063 -0.130467 0)
(-0.138561 -0.154151 0)
(-0.110111 -0.166194 0)
(-0.0783601 -0.163145 0)
(-0.0461409 -0.141843 0)
(-0.0185658 -0.100236 0)
(-0.00338841 -0.0387292 0)
(-0.00410769 0.0489852 0)
(-0.021645 0.124008 0)
(-0.0523542 0.172385 0)
(-0.0868591 0.195134 0)
(-0.119481 0.196079 0)
(-0.147584 0.179903 0)
(-0.170007 0.15113 0)
(-0.186502 0.113651 0)
(-0.197292 0.0705899 0)
(-0.202709 0.024416 0)
(-0.202959 -0.0228287 0)
(-0.198021 -0.0692385 0)
(-0.187639 -0.112739 0)
(-0.171435 -0.150796 0)
(-0.149136 -0.180184 0)
(-0.120958 -0.196886 0)
(-0.0880572 -0.196242 0)
(-0.0531241 -0.173469 0)
(-0.0219691 -0.124738 0)
(-0.00416716 -0.0491838 0)
(-0.00514672 0.0612936 0)
(-0.0257192 0.151657 0)
(-0.0598574 0.206541 0)
(-0.0960164 0.229247 0)
(-0.128011 0.226252 0)
(-0.153753 0.204366 0)
(-0.172951 0.1695 0)
(-0.186212 0.126253 0)
(-0.194457 0.0779667 0)
(-0.198489 0.0269985 0)
(-0.198754 -0.0248921 0)
(-0.195236 -0.0761392 0)
(-0.187452 -0.124956 0)
(-0.174552 -0.168923 0)
(-0.155557 -0.204598 0)
(-0.129801 -0.227232 0)
(-0.0975422 -0.230734 0)
(-0.0608943 -0.20812 0)
(-0.0261884 -0.152834 0)
(-0.00524278 -0.061693 0)
(-0.00667696 0.0761991 0)
(-0.0309618 0.183102 0)
(-0.0681132 0.242881 0)
(-0.104061 0.262937 0)
(-0.132609 0.253713 0)
(-0.152911 0.224767 0)
(-0.166064 0.183506 0)
(-0.173837 0.135093 0)
(-0.177985 0.0828291 0)
(-0.17983 0.0286992 0)
(-0.180068 -0.0260728 0)
(-0.178695 -0.0805071 0)
(-0.175002 -0.133363 0)
(-0.167632 -0.182612 0)
(-0.15477 -0.224864 0)
(-0.134563 -0.254804 0)
(-0.105835 -0.264801 0)
(-0.0694046 -0.245035 0)
(-0.031596 -0.184858 0)
(-0.00682085 -0.0768885 0)
(-0.00906577 0.0947026 0)
(-0.0379247 0.218538 0)
(-0.0767914 0.279804 0)
(-0.109144 0.293208 0)
(-0.129925 0.2749 0)
(-0.140579 0.23768 0)
(-0.144176 0.190296 0)
(-0.143858 0.138083 0)
(-0.142219 0.0839086 0)
(-0.141029 0.0290636 0)
(-0.141181 -0.0260145 0)
(-0.14269 -0.0811589 0)
(-0.144684 -0.135932 0)
(-0.145384 -0.189029 0)
(-0.14215 -0.237529 0)
(-0.131742 -0.27597 0)
(-0.110959 -0.295359 0)
(-0.0782482 -0.282539 0)
(-0.0387218 -0.220979 0)
(-0.00926852 -0.0957839 0)
(-0.0129065 0.118409 0)
(-0.0471897 0.257615 0)
(-0.0845413 0.314085 0)
(-0.107433 0.315237 0)
(-0.114222 0.284803 0)
(-0.109987 0.238796 0)
(-0.100192 0.186611 0)
(-0.0892606 0.133024 0)
(-0.0803516 0.0799415 0)
(-0.075428 0.0276432 0)
(-0.0754293 -0.0243954 0)
(-0.0803899 -0.076948 0)
(-0.0894302 -0.130559 0)
(-0.100621 -0.184972 0)
(-0.11079 -0.238286 0)
(-0.115427 -0.285651 0)
(-0.108906 -0.317458 0)
(-0.0859442 -0.317273 0)
(-0.0480971 -0.260767 0)
(-0.013173 -0.119982 0)
(-0.0188565 0.149839 0)
(-0.058494 0.298411 0)
(-0.0871239 0.339552 0)
(-0.0910299 0.32166 0)
(-0.0757521 0.276981 0)
(-0.0511226 0.223385 0)
(-0.0247388 0.16939 0)
(-0.0016124 0.118146 0)
(0.0152211 0.0700342 0)
(0.0241042 0.0241323 0)
(0.024302 -0.0210357 0)
(0.015767 -0.0671083 0)
(-0.00085689 -0.115597 0)
(-0.0239882 -0.167484 0)
(-0.0506318 -0.222453 0)
(-0.0757442 -0.277375 0)
(-0.0915839 -0.323604 0)
(-0.088058 -0.342864 0)
(-0.0593477 -0.302137 0)
(-0.0191649 -0.151974 0)
(-0.0264625 0.193171 0)
(-0.0677001 0.335014 0)
(-0.0729897 0.344652 0)
(-0.0441149 0.301756 0)
(0.0015903 0.244052 0)
(0.0502177 0.187354 0)
(0.0938178 0.136864 0)
(0.128367 0.0929595 0)
(0.152067 0.0541905 0)
(0.164225 0.018562 0)
(0.164618 -0.0160355 0)
(0.153198 -0.0517325 0)
(0.130099 -0.0906764 0)
(0.0959094 -0.134939 0)
(0.0523325 -0.18608 0)
(0.00333406 -0.243832 0)
(-0.0430906 -0.303014 0)
(-0.072828 -0.347547 0)
(-0.0681295 -0.338913 0)
(-0.0267083 -0.195841 0)
(-0.0289528 0.251331 0)
(-0.0581036 0.350742 0)
(-0.0140171 0.309539 0)
(0.0632657 0.242401 0)
(0.142947 0.18031 0)
(0.212724 0.129919 0)
(0.268473 0.0905925 0)
(0.309449 0.0595774 0)
(0.336246 0.0340346 0)
(0.349654 0.0115488 0)
(0.350147 -0.00995155 0)
(0.3377 -0.0324236 0)
(0.311783 -0.0579641 0)
(0.271519 -0.0890461 0)
(0.216198 -0.128613 0)
(0.146424 -0.179576 0)
(0.0662122 -0.242736 0)
(-0.0121383 -0.311417 0)
(-0.0574832 -0.354042 0)
(-0.0288312 -0.254178 0)
(0.0132196 0.289507 0)
(0.0296817 0.302855 0)
(0.15418 0.214069 0)
(0.282834 0.142345 0)
(0.38297 0.0939486 0)
(0.457131 0.0619624 0)
(0.510502 0.0405509 0)
(0.54709 0.0255474 0)
(0.56996 0.0142061 0)
(0.581116 0.00473812 0)
(0.581523 -0.00414301 0)
(0.571185 -0.0135725 0)
(0.549137 -0.0248413 0)
(0.51335 -0.0397538 0)
(0.460687 -0.0611006 0)
(0.387006 -0.0931595 0)
(0.286924 -0.14197 0)
(0.157626 -0.214617 0)
(0.0318292 -0.304532 0)
(0.01426 -0.291325 0)
(0.304245 0.147455 0)
(0.405563 0.12783 0)
(0.569531 0.0747835 0)
(0.686122 0.0418386 0)
(0.753523 0.023843 0)
(0.794598 0.0139302 0)
(0.820888 0.00829802 0)
(0.837586 0.00488893 0)
(0.847522 0.00260053 0)
(0.852223 0.000835245 0)
(0.852351 -0.000772308 0)
(0.847918 -0.00252075 0)
(0.838285 -0.00477209 0)
(0.821949 -0.00811771 0)
(0.796091 -0.0136558 0)
(0.755503 -0.0234584 0)
(0.688596 -0.0413909 0)
(0.572195 -0.0744403 0)
(0.407524 -0.127869 0)
(0.30517 -0.147796 0)
)
;

boundaryField
{
    top
    {
        type            fixedValue;
        value           uniform (1 0 0);
    }
    left
    {
        type            fixedValue;
        value           uniform (0 0 0);
    }
    right
    {
        type            fixedValue;
        value           uniform (0 0 0);
    }
    bottom
    {
        type            fixedValue;
        value           uniform (0 0 0);
    }
    back0
    {
        type            empty;
    }
    front1
    {
        type            empty;
    }
}


// ************************************************************************* //
