/*--------------------------------*- C++ -*----------------------------------*\
| =========                 |                                                 |
| \\      /  F ield         | OpenFOAM: The Open Source CFD Toolbox           |
|  \\    /   O peration     | Version:  3.0.1                                 |
|   \\  /    A nd           | Web:      www.OpenFOAM.org                      |
|    \\/     M anipulation  |                                                 |
\*---------------------------------------------------------------------------*/
FoamFile
{
    version     2.0;
    format      ascii;
    class       volVectorField;
    location    "1";
    object      W;
}
// * * * * * * * * * * * * * * * * * * * * * * * * * * * * * * * * * * * * * //

dimensions      [0 1 -1 0 0 0 0];

internalField   nonuniform List<vector> 
400
(
(1.22264567e-08 4.45552674e-08 0)
(2.23731858e-07 -1.75338241e-07 0)
(4.48587255e-07 -3.53457419e-07 0)
(1.88176676e-07 -2.95143802e-07 0)
(-5.17420554e-07 7.04462989e-08 0)
(-1.17372204e-06 5.39715683e-07 0)
(-1.19539652e-06 7.4543598e-07 0)
(-4.22902017e-07 4.48022533e-07 0)
(6.5711933e-07 -2.34037246e-07 0)
(1.21645562e-06 -8.58147512e-07 0)
(7.17124351e-07 -9.59638176e-07 0)
(-6.21718524e-07 -4.04636718e-07 0)
(-1.91383108e-06 4.78677718e-07 0)
(-2.21790254e-06 1.1043438e-06 0)
(-1.22161809e-06 1.02967409e-06 0)
(5.19431199e-07 2.6672381e-07 0)
(1.96396047e-06 -7.16973946e-07 0)
(2.30263649e-06 -1.31834067e-06 0)
(1.65053364e-06 -1.25254453e-06 0)
(4.29481491e-07 -5.28749533e-07 0)
(-2.23475181e-07 2.89896871e-07 0)
(-3.02525463e-07 -9.39053321e-08 0)
(2.43242112e-07 -6.45234164e-07 0)
(5.51168482e-07 -8.2524024e-07 0)
(2.11679598e-07 -2.72634072e-07 0)
(-7.61560404e-07 8.20117728e-07 0)
(-1.7868736e-06 1.69275084e-06 0)
(-2.11440843e-06 1.56427358e-06 0)
(-1.43966899e-06 3.00181611e-07 0)
(-2.09160177e-07 -1.3638433e-06 0)
(6.63410565e-07 -2.2795291e-06 0)
(4.7829359e-07 -1.71980006e-06 0)
(-6.97125133e-07 3.87904929e-08 0)
(-2.04193118e-06 1.84856024e-06 0)
(-2.56005242e-06 2.4707309e-06 0)
(-1.78466074e-06 1.44919447e-06 0)
(-8.53161267e-08 -5.57525953e-07 0)
(1.61092849e-06 -2.26800314e-06 0)
(2.61708671e-06 -2.82173819e-06 0)
(1.13232206e-06 -1.81533394e-06 0)
(-3.72248185e-07 4.69703802e-07 0)
(-8.73959091e-07 6.00577727e-07 0)
(-4.96597333e-07 1.19344268e-07 0)
(1.75544758e-07 -5.4077529e-07 0)
(5.80440314e-07 -8.00251721e-07 0)
(1.19867271e-07 -2.34022613e-07 0)
(-1.2055887e-06 9.26176516e-07 0)
(-2.63930462e-06 1.85515753e-06 0)
(-3.18770493e-06 1.73683946e-06 0)
(-2.39722449e-06 4.38065892e-07 0)
(-7.63617274e-07 -1.29741063e-06 0)
(5.79436369e-07 -2.3292887e-06 0)
(6.79819595e-07 -1.94020841e-06 0)
(-5.21607009e-07 -3.7842361e-07 0)
(-2.12392663e-06 1.29870784e-06 0)
(-2.89167985e-06 1.97970225e-06 0)
(-2.11897937e-06 1.2895516e-06 0)
(-1.52592747e-07 -2.32570306e-07 0)
(1.9184986e-06 -1.76665491e-06 0)
(1.11841312e-06 -2.28376305e-06 0)
(-2.56822205e-07 1.82596248e-07 0)
(-9.61159839e-07 1.02459326e-06 0)
(-1.24240856e-06 1.14090743e-06 0)
(-8.02910775e-07 4.82643938e-07 0)
(9.15189334e-08 -5.0450122e-07 0)
(5.73969754e-07 -9.67744246e-07 0)
(-1.03181719e-07 -3.59762081e-07 0)
(-1.81119833e-06 1.02972133e-06 0)
(-3.51758445e-06 2.1915732e-06 0)
(-4.01642167e-06 2.1238313e-06 0)
(-2.8637038e-06 6.25826931e-07 0)
(-7.77388495e-07 -1.47067347e-06 0)
(8.37818413e-07 -2.84622331e-06 0)
(9.05716463e-07 -2.6272797e-06 0)
(-5.19653465e-07 -1.01201661e-06 0)
(-2.26699599e-06 8.82491006e-07 0)
(-2.88908878e-06 1.82941312e-06 0)
(-1.79941297e-06 1.31011935e-06 0)
(2.27364369e-07 -2.98827584e-07 0)
(5.4186723e-07 -1.78970328e-06 0)
(1.41606576e-07 -4.20639963e-07 0)
(-3.01692218e-07 8.5137593e-07 0)
(-1.42593537e-06 1.83716957e-06 0)
(-1.85061433e-06 1.85643812e-06 0)
(-1.19582534e-06 8.20539273e-07 0)
(9.53986126e-09 -5.75047217e-07 0)
(6.02143679e-07 -1.24486392e-06 0)
(-2.28967054e-07 -5.59431511e-07 0)
(-2.20551353e-06 1.07484093e-06 0)
(-4.06359804e-06 2.42314871e-06 0)
(-4.46183312e-06 2.31484928e-06 0)
(-3.01158815e-06 5.53061361e-07 0)
(-6.24124902e-07 -1.87019689e-06 0)
(1.12002261e-06 -3.44490871e-06 0)
(1.12752921e-06 -3.2132942e-06 0)
(-3.88982948e-07 -1.44430287e-06 0)
(-2.06967592e-06 5.8656864e-07 0)
(-2.52812165e-06 1.54008087e-06 0)
(-1.58270609e-06 9.95257645e-07 0)
(-2.98120221e-07 -4.20331114e-07 0)
(5.78979286e-07 -8.31089936e-07 0)
(7.94891367e-07 1.7886652e-07 0)
(-7.32622978e-07 1.68705686e-06 0)
(-2.14885099e-06 2.71356016e-06 0)
(-2.50768299e-06 2.54038337e-06 0)
(-1.49795233e-06 1.09416134e-06 0)
(6.27650036e-08 -7.26474499e-07 0)
(8.00029782e-07 -1.62775058e-06 0)
(-1.31920359e-07 -9.21778602e-07 0)
(-2.31003418e-06 8.70465161e-07 0)
(-4.26960436e-06 2.33502598e-06 0)
(-4.56930422e-06 2.19855082e-06 0)
(-2.89053285e-06 3.01728263e-07 0)
(-3.16027922e-07 -2.23919387e-06 0)
(1.45192842e-06 -3.82264548e-06 0)
(1.35997005e-06 -3.51793033e-06 0)
(-2.145259e-07 -1.71349188e-06 0)
(-1.84325005e-06 2.61038553e-07 0)
(-2.36974157e-06 1.30513324e-06 0)
(-8.89178847e-07 9.7296795e-07 0)
(7.04610757e-07 -5.62102992e-07 0)
(1.55205133e-06 -4.20314323e-07 0)
(5.05411726e-07 7.71098897e-07 0)
(-1.2700063e-06 2.39709943e-06 0)
(-2.80711491e-06 3.50256122e-06 0)
(-2.98316686e-06 3.12172223e-06 0)
(-1.59786332e-06 1.24384413e-06 0)
(3.07123393e-07 -1.01325718e-06 0)
(1.18122382e-06 -2.16739845e-06 0)
(1.73698859e-07 -1.4897772e-06 0)
(-2.14273295e-06 4.01551942e-07 0)
(-4.13739143e-06 1.96245783e-06 0)
(-4.3273409e-06 1.86274357e-06 0)
(-2.5052388e-06 -1.59209985e-08 0)
(8.90422867e-08 -2.48730922e-06 0)
(1.70734088e-06 -3.94595328e-06 0)
(1.42862051e-06 -3.54396199e-06 0)
(-1.73863384e-07 -1.71550337e-06 0)
(-1.65102055e-06 4.00032562e-07 0)
(-8.75770861e-07 1.49906406e-06 0)
(3.36344857e-07 4.0848985e-07 0)
(1.28217222e-06 -3.14170252e-07 0)
(1.44579737e-06 -1.73011074e-07 0)
(3.7530408e-07 1.10069686e-06 0)
(-1.61151436e-06 2.96523162e-06 0)
(-3.22084073e-06 4.11329384e-06 0)
(-3.20144272e-06 3.48834578e-06 0)
(-1.46719899e-06 1.19469457e-06 0)
(7.28212896e-07 -1.45149981e-06 0)
(1.70187162e-06 -2.82524569e-06 0)
(6.39843303e-07 -2.18472985e-06 0)
(-1.74096853e-06 -2.31775762e-07 0)
(-3.70469703e-06 1.40669031e-06 0)
(-3.80403351e-06 1.39169324e-06 0)
(-1.97520739e-06 -3.427706e-07 0)
(4.39537794e-07 -2.57817802e-06 0)
(1.77080522e-06 -3.75958525e-06 0)
(1.35951006e-06 -3.12907089e-06 0)
(2.86443384e-08 -1.1416734e-06 0)
(-3.08745574e-07 8.55174741e-07 0)
(-3.54525171e-07 1.52004362e-06 0)
(-2.33623334e-08 6.57368086e-07 0)
(1.33999768e-06 -2.64459463e-07 0)
(1.72885423e-06 -1.59543593e-07 0)
(5.11133014e-07 1.27857687e-06 0)
(-1.70857827e-06 3.29127987e-06 0)
(-3.35375996e-06 4.41345684e-06 0)
(-3.13609445e-06 3.56091434e-06 0)
(-1.11618141e-06 9.42903038e-07 0)
(1.27285981e-06 -1.97649289e-06 0)
(2.28342027e-06 -3.49032197e-06 0)
(1.17993453e-06 -2.87684567e-06 0)
(-1.19963072e-06 -9.03664068e-07 0)
(-3.08899398e-06 7.78007984e-07 0)
(-3.14401316e-06 8.80462431e-07 0)
(-1.43831284e-06 -5.88237874e-07 0)
(6.80629231e-07 -2.40786889e-06 0)
(1.76388063e-06 -3.15230325e-06 0)
(1.50421228e-06 -2.31958973e-06 0)
(4.00153657e-07 -4.6345731e-07 0)
(-9.14485882e-07 1.97446998e-06 0)
(-1.56172299e-06 1.96135481e-06 0)
(1.53060131e-07 8.04076719e-07 0)
(1.83426121e-06 -2.79558508e-07 0)
(2.24010783e-06 -2.73983512e-07 0)
(8.1720837e-07 1.1981561e-06 0)
(-1.56381207e-06 3.26820687e-06 0)
(-3.18553349e-06 4.3497637e-06 0)
(-2.7957263e-06 3.34557004e-06 0)
(-6.02196185e-07 5.50175872e-07 0)
(1.84594457e-06 -2.48370143e-06 0)
(2.81239408e-06 -4.03429578e-06 0)
(1.67156232e-06 -3.43083312e-06 0)
(-6.5233922e-07 -1.47987306e-06 0)
(-2.43205686e-06 2.10176141e-07 0)
(-2.46574315e-06 4.64361023e-07 0)
(-9.32393725e-07 -6.30874433e-07 0)
(8.91644136e-07 -1.95262096e-06 0)
(1.8330077e-06 -2.42550981e-06 0)
(7.76218016e-07 -1.53872199e-06 0)
(-9.16833478e-07 1.33450065e-06 0)
(-2.2239408e-06 2.69387337e-06 0)
(-1.31612182e-06 2.43035162e-06 0)
(5.91484025e-07 1.03532099e-06 0)
(2.44041503e-06 -4.25301308e-07 0)
(2.8151084e-06 -6.21088943e-07 0)
(1.26557572e-06 8.21474988e-07 0)
(-1.18006625e-06 2.90459011e-06 0)
(-2.74446371e-06 3.95938672e-06 0)
(-2.25084822e-06 2.90736807e-06 0)
(-2.91769317e-08 1.07741794e-07 0)
(2.32875025e-06 -2.86417406e-06 0)
(3.16904018e-06 -4.33961556e-06 0)
(1.99730467e-06 -3.72367714e-06 0)
(-2.1219695e-07 -1.82969431e-06 0)
(-1.82775534e-06 -1.62585891e-07 0)
(-1.82250063e-06 2.44015361e-07 0)
(-4.96152107e-07 -5.09816032e-07 0)
(9.37367001e-07 -1.53082374e-06 0)
(6.11823651e-07 -1.70111803e-06 0)
(-2.9010634e-07 -8.21857672e-08 0)
(-1.40912111e-06 2.24628279e-06 0)
(-1.9672513e-06 3.4717698e-06 0)
(-1.09608432e-06 2.94520511e-06 0)
(1.03738162e-06 1.05678077e-06 0)
(3.04759944e-06 -7.76264934e-07 0)
(3.42131837e-06 -1.14925315e-06 0)
(1.81588919e-06 2.33345573e-07 0)
(-6.25972436e-07 2.2875941e-06 0)
(-2.12811351e-06 3.33303856e-06 0)
(-1.61813928e-06 2.3427304e-06 0)
(4.8408491e-07 -2.87357698e-07 0)
(2.61638528e-06 -3.02668586e-06 0)
(3.26891424e-06 -4.32123533e-06 0)
(2.08981946e-06 -3.67111898e-06 0)
(6.21910051e-08 -1.87202402e-06 0)
(-1.34231495e-06 -2.96074215e-07 0)
(-1.34615451e-06 1.59766594e-07 0)
(-4.18329068e-07 -3.70055241e-07 0)
(8.58972649e-08 -9.74329311e-07 0)
(5.91326055e-07 -1.35773902e-06 0)
(4.68502707e-07 8.03052476e-07 0)
(-1.21489881e-06 3.08012292e-06 0)
(-1.94690844e-06 4.03599241e-06 0)
(-8.77693484e-07 3.11115581e-06 0)
(1.51802928e-06 8.63137598e-07 0)
(3.6285256e-06 -1.20961452e-06 0)
(3.97745564e-06 -1.72192927e-06 0)
(2.35624339e-06 -4.37676191e-07 0)
(-2.81465205e-08 1.54215139e-06 0)
(-1.46861753e-06 2.59206177e-06 0)
(-1.0208087e-06 1.75993241e-06 0)
(8.41825139e-07 -5.51915924e-07 0)
(2.65184609e-06 -2.91860726e-06 0)
(3.08808079e-06 -3.95350727e-06 0)
(1.93264229e-06 -3.27096676e-06 0)
(1.22523479e-07 -1.63720185e-06 0)
(-1.10305073e-06 -2.49418911e-07 0)
(-1.25732392e-06 2.61458155e-07 0)
(-4.03010324e-07 2.76610887e-08 0)
(1.14319423e-06 -1.60613809e-06 0)
(2.20063595e-06 -7.42110977e-07 0)
(5.36561702e-07 1.36476898e-06 0)
(-1.25066093e-06 3.37268551e-06 0)
(-1.8354078e-06 4.14063714e-06 0)
(-5.15860962e-07 3.01385735e-06 0)
(1.99721087e-06 5.97110789e-07 0)
(4.06714408e-06 -1.5913666e-06 0)
(4.34675025e-06 -2.2089165e-06 0)
(2.75061916e-06 -1.05500093e-06 0)
(4.79992747e-07 8.09671568e-07 0)
(-8.89116376e-07 1.86777868e-06 0)
(-5.53049142e-07 1.25833977e-06 0)
(9.96215588e-07 -6.37000172e-07 0)
(2.43348949e-06 -2.54833112e-06 0)
(2.6450143e-06 -3.29681475e-06 0)
(1.52612714e-06 -2.61742706e-06 0)
(-5.7764632e-08 -1.19302474e-06 0)
(-1.10633835e-06 9.08958214e-08 0)
(-5.43002976e-07 6.19993994e-07 0)
(9.72905281e-07 -6.18480991e-07 0)
(2.60945759e-06 -1.40871908e-06 0)
(2.14875341e-06 -6.37231991e-07 0)
(5.87120934e-07 1.24286021e-06 0)
(-1.08581768e-06 3.23362574e-06 0)
(-1.49321328e-06 3.94478908e-06 0)
(-9.00516058e-08 2.76036617e-06 0)
(2.33214106e-06 3.40108477e-07 0)
(4.22936133e-06 -1.83451987e-06 0)
(4.41782309e-06 -2.50225928e-06 0)
(2.8973081e-06 -1.48911533e-06 0)
(7.99701061e-07 2.25935861e-07 0)
(-4.73984765e-07 1.27450781e-06 0)
(-2.64366974e-07 9.00758544e-07 0)
(9.4416449e-07 -5.51116144e-07 0)
(1.99526051e-06 -1.99546312e-06 0)
(1.99379776e-06 -2.47272176e-06 0)
(9.73663739e-07 -1.8025895e-06 0)
(-2.52565326e-07 -5.18783508e-07 0)
(-3.12616647e-07 5.40644167e-07 0)
(1.5657879e-07 9.76509587e-07 0)
(1.38437261e-06 -8.12740192e-07 0)
(2.56824182e-06 -1.6692117e-06 0)
(2.33814616e-06 -9.9393534e-07 0)
(8.39871708e-07 9.05242867e-07 0)
(-7.40227625e-07 2.83397329e-06 0)
(-1.07534962e-06 3.49190983e-06 0)
(2.37716327e-07 2.37416327e-06 0)
(2.41403409e-06 1.32330447e-07 0)
(4.05849636e-06 -1.87285273e-06 0)
(4.15410509e-06 -2.51164337e-06 0)
(2.75312734e-06 -1.6389132e-06 0)
(8.78874853e-07 -1.1994413e-07 0)
(-2.65434868e-07 8.64059009e-07 0)
(-1.64131143e-07 6.82742754e-07 0)
(7.21411667e-07 -3.58896346e-07 0)
(1.42608689e-06 -1.3657063e-06 0)
(1.32105568e-06 -1.59025312e-06 0)
(5.93012389e-07 -9.52594628e-07 0)
(5.59529088e-08 5.12707217e-08 0)
(-8.0572253e-07 2.16057346e-06 0)
(-6.85359734e-07 6.09622401e-07 0)
(1.58833662e-06 -1.11535995e-06 0)
(2.85664891e-06 -1.86731837e-06 0)
(2.53937481e-06 -1.25275545e-06 0)
(1.03683941e-06 4.34651733e-07 0)
(-4.2831799e-07 2.16385129e-06 0)
(-7.30241765e-07 2.80816687e-06 0)
(4.07183784e-07 1.92233221e-06 0)
(2.24850145e-06 5.43382424e-08 0)
(3.57986987e-06 -1.6404833e-06 0)
(3.56542901e-06 -2.20312357e-06 0)
(2.30761642e-06 -1.50423527e-06 0)
(7.06432125e-07 -2.51854239e-07 0)
(-2.50236626e-07 5.98891906e-07 0)
(-1.98464825e-07 5.55817786e-07 0)
(4.35514375e-07 -1.23549854e-07 0)
(9.1854042e-07 -7.53115735e-07 0)
(8.83650476e-07 -8.50248187e-07 0)
(2.89778614e-07 -3.63434603e-07 0)
(-1.32914133e-06 2.2502972e-06 0)
(-2.288241e-06 1.96460419e-06 0)
(-8.85469482e-08 5.80445396e-07 0)
(1.84901129e-06 -9.23224051e-07 0)
(2.78720526e-06 -1.85034141e-06 0)
(2.36920072e-06 -1.56632543e-06 0)
(1.05633582e-06 -1.97839872e-07 0)
(-1.69474301e-07 1.38086804e-06 0)
(-4.39003385e-07 2.14472148e-06 0)
(4.30165006e-07 1.619118e-06 0)
(1.82191389e-06 1.87088575e-07 0)
(2.77236712e-06 -1.20905088e-06 0)
(2.66087339e-06 -1.74385902e-06 0)
(1.62426498e-06 -1.25669866e-06 0)
(3.91931518e-07 -2.79040976e-07 0)
(-3.01189597e-07 4.40407798e-07 0)
(-2.39183644e-07 5.09144013e-07 0)
(2.25176663e-07 1.03054279e-07 0)
(5.87656837e-07 -3.30089077e-07 0)
(2.7543668e-07 -4.03845878e-07 0)
(-1.18361669e-06 1.49167518e-06 0)
(-2.66095391e-06 2.70875394e-06 0)
(-1.62008682e-06 2.36527984e-06 0)
(-1.35035712e-07 9.38240516e-07 0)
(1.4137035e-06 -9.12504323e-07 0)
(2.31588622e-06 -2.10046922e-06 0)
(2.16182543e-06 -1.93602708e-06 0)
(1.16397979e-06 -5.92351406e-07 0)
(5.04291942e-08 1.02500367e-06 0)
(-4.20536009e-07 1.88852891e-06 0)
(1.67572956e-08 1.52439238e-06 0)
(9.69129715e-07 2.86701249e-07 0)
(1.70453953e-06 -9.48829931e-07 0)
(1.70586689e-06 -1.42881338e-06 0)
(1.02492413e-06 -1.01484547e-06 0)
(1.77761961e-07 -1.79290172e-07 0)
(-2.99572137e-07 4.39115251e-07 0)
(-2.5092344e-07 5.22848351e-07 0)
(7.39711865e-08 2.08083457e-07 0)
(1.00581537e-07 -1.30975175e-07 0)
(-4.29333152e-07 3.557605e-07 0)
(-1.58497394e-06 1.12161118e-06 0)
(-2.13710209e-06 1.23460518e-06 0)
(-1.86149727e-06 7.86667731e-07 0)
(-6.60455757e-07 -1.82279157e-08 0)
(8.65294253e-07 -7.32160015e-07 0)
(1.88473153e-06 -9.58710178e-07 0)
(1.86570984e-06 -6.02190192e-07 0)
(9.27606836e-07 7.8007498e-08 0)
(-2.46776871e-07 6.40468404e-07 0)
(-8.92248758e-07 7.52319386e-07 0)
(-6.81193379e-07 3.97058527e-07 0)
(9.72790182e-08 -1.41554966e-07 0)
(8.12754869e-07 -5.01952186e-07 0)
(9.86283522e-07 -4.97831758e-07 0)
(6.08245126e-07 -2.16569709e-07 0)
(5.87582094e-08 9.25542457e-08 0)
(-2.58537061e-07 2.29053997e-07 0)
(-2.20913832e-07 1.69026755e-07 0)
(-5.7318994e-08 1.68209349e-08 0)
)
;

boundaryField
{
    top
    {
        type            calculated;
        value           uniform (-5.55111512e-15 0 0);
    }
    left
    {
        type            calculated;
        value           uniform (0 0 0);
    }
    right
    {
        type            calculated;
        value           uniform (0 0 0);
    }
    bottom
    {
        type            calculated;
        value           uniform (0 0 0);
    }
    back0
    {
        type            empty;
    }
    front1
    {
        type            empty;
    }
}


// ************************************************************************* //
