/*--------------------------------*- C++ -*----------------------------------*\
| =========                 |                                                 |
| \\      /  F ield         | OpenFOAM: The Open Source CFD Toolbox           |
|  \\    /   O peration     | Version:  3.0.1                                 |
|   \\  /    A nd           | Web:      www.OpenFOAM.org                      |
|    \\/     M anipulation  |                                                 |
\*---------------------------------------------------------------------------*/
FoamFile
{
    version     2.0;
    format      ascii;
    class       volScalarField;
    location    "7";
    object      magVorticity;
}
// * * * * * * * * * * * * * * * * * * * * * * * * * * * * * * * * * * * * * //

dimensions      [0 0 -1 0 0 0 0];

internalField   nonuniform List<scalar> 
400
(
0.00347020201
0.0221850538
0.0755173498
0.156108578
0.254454244
0.358690674
0.457259107
0.540229243
0.599920483
0.631138394
0.631252043
0.600220519
0.540608018
0.45758261
0.358850557
0.254412226
0.155913787
0.0752821546
0.0220148633
0.00355280778
0.0218565675
0.0761113202
0.128104194
0.186678345
0.251556522
0.318273294
0.380917489
0.433681238
0.471724294
0.491634069
0.491655187
0.471784282
0.433771008
0.381024581
0.318383874
0.251655354
0.186746429
0.128115708
0.0760345096
0.0216764389
0.0753325349
0.132300089
0.174101854
0.210913853
0.246757794
0.28183509
0.314345904
0.341749134
0.361586272
0.371991035
0.371977478
0.361565425
0.341771985
0.31447135
0.282098431
0.247141164
0.211330872
0.174407469
0.132330394
0.0749743302
0.162175904
0.203668108
0.225096431
0.236099222
0.242668936
0.247868124
0.252763794
0.257268351
0.260797379
0.262735897
0.262728524
0.260811012
0.25739469
0.253108165
0.248492098
0.243536222
0.237046151
0.225845535
0.203891912
0.161606538
0.282044897
0.295149497
0.286568521
0.265744802
0.239935019
0.214143855
0.191481238
0.173666863
0.161526629
0.155399732
0.155416236
0.161627204
0.173982965
0.192164916
0.215285015
0.241479701
0.267443785
0.287984148
0.295735812
0.281301971
0.434347878
0.408435936
0.360420984
0.300489432
0.237244754
0.177296121
0.125311124
0.084332816
0.0561929737
0.0419006944
0.0419279403
0.0563468306
0.084801646
0.126320422
0.178995513
0.239588794
0.30314998
0.362772641
0.409645635
0.433583223
0.619556146
0.5440594
0.446464676
0.338793263
0.231436431
0.132583239
0.048165737
0.0178489
0.063008948
0.085928004
0.085943739
0.062951086
0.017437477
0.049284274
0.134684779
0.234547304
0.342544551
0.450033511
0.54625601
0.61909804
0.839525367
0.7021853
0.543057096
0.377212084
0.217452931
0.073646313
0.047271788
0.14084307
0.204444009
0.236661241
0.23682516
0.204780909
0.140930985
0.046546596
0.075693989
0.22103547
0.382010888
0.548083444
0.705839814
0.839948325
1.09750752
0.882743832
0.647103558
0.410205599
0.188018716
0.00785143
0.169874927
0.293726627
0.377236294
0.419443618
0.419921446
0.378445894
0.295043973
0.170420411
0.00673291
0.191378349
0.415708862
0.653702523
0.888420819
1.09970101
1.39816963
1.08514945
0.753480334
0.429411722
0.132938128
0.12278155
0.330437352
0.486868701
0.591310627
0.643954151
0.644973295
0.594058642
0.490463806
0.333573986
0.12400401
0.134821329
0.434805416
0.761507925
1.09345671
1.40339409
1.7478496
1.30760404
0.853724599
0.422202162
0.0378816
0.28536182
0.54206919
0.731987082
0.857215925
0.920105951
0.921938923
0.862315337
0.739187642
0.54955926
0.290944
0.03632072
0.425987552
0.862574299
1.3190803
1.75776062
2.15519796
1.54564018
0.933494599
0.369131902
0.11752991
0.51424725
0.82055674
1.04197661
1.18562214
1.25737506
1.26029171
1.193903
1.05421609
0.83444903
0.52674998
0.125299
0.368895889
0.941805852
1.56054197
2.1718076
2.63220548
1.78887521
0.96769044
0.239598247
0.3625581
0.83381768
1.18448708
1.43030731
1.58632446
1.66362104
1.66779452
1.59836649
1.44873157
1.20668326
0.85599262
0.3799602
0.231856197
0.972967735
1.80680199
2.65772487
3.194705
2.01329417
0.910984546
0.01532094
0.7391596
1.27527865
1.65468772
1.90964428
2.06653339
2.14325839
2.1486169
2.08223008
1.93442289
1.68608634
1.30920821
0.76965781
0.03498489
0.909197487
2.03256241
3.2311495
3.8581444
2.16246377
0.6795408
0.473964592
1.30613507
1.87648168
2.25208866
2.48915648
2.62821219
2.69470446
2.70074616
2.64620259
2.5185102
2.29122734
1.92197171
1.35170327
0.509966122
0.665013641
2.1791633
3.90645649
4.61806721
2.10223493
0.11697441
1.25889839
2.14088094
2.67795317
2.99247833
3.16984143
3.26432424
3.30723183
3.31287566
3.28149139
3.19904378
3.03386915
2.73013774
2.19912046
1.31304038
0.083510728
2.1092257
4.67646476
5.38281774
1.5109028
1.06365025
2.54895702
3.33100655
3.71033798
3.87606102
3.93734995
3.95421914
3.95776117
3.96139934
3.96574104
3.95845958
3.90910632
3.75722588
3.39102286
2.61511352
1.11818774
1.49842173
5.44419928
5.62391122
0.391739681
3.35510611
4.56177246
4.9386033
4.96630745
4.87026422
4.75280946
4.65921791
4.6087675
4.60877943
4.65999257
4.75660452
4.88089278
4.98884032
4.97794516
4.61856062
3.41760431
0.427190013
5.67251627
2.59164185
5.39105665
7.44057753
7.42976026
6.90958344
6.35272114
5.88829951
5.54481984
5.32085752
5.20917537
5.20513705
5.30915429
5.52684107
5.86689544
6.33298848
6.89947798
7.43841624
7.46895733
5.41714978
2.61856008
14.0725102
16.374262
13.6227996
10.8198515
8.91416202
7.63815872
6.77651118
6.21020496
5.86571472
5.70033666
5.69481797
5.84897186
6.18174524
6.73584399
7.58562652
8.8522624
10.7546112
13.5665675
16.3400212
14.0490603
)
;

boundaryField
{
    top
    {
        type            calculated;
        value           nonuniform List<scalar> 
20
(
25.0773522
24.5041778
18.0786565
13.0645384
10.1381821
8.37152091
7.25490539
6.55351566
6.13964523
5.94480837
5.93952781
6.12329356
6.52454806
7.210859
8.30975454
10.0572368
12.9659605
17.9769843
24.432587
25.0365743
)
;
    }
    left
    {
        type            calculated;
        value           nonuniform List<scalar> 
20
(
0.0121575911
3.878326e-05
0.0497002892
0.142373248
0.275552205
0.447202481
0.657559557
0.909284737
1.20742731
1.55967833
1.97732335
2.47743898
3.08715797
3.85040082
4.83424883
6.12913695
7.82781039
9.65643175
8.24832115
10.9271634
)
;
    }
    right
    {
        type            calculated;
        value           nonuniform List<scalar> 
20
(
0.0122547246
0.00030693398
0.0490994119
0.141332401
0.27403419
0.44529492
0.655561862
0.907810735
1.20751611
1.56290532
1.9858971
2.49426093
3.11580063
3.8948802
4.89826302
6.2143161
7.93028674
9.75742353
8.31297204
10.8938709
)
;
    }
    bottom
    {
        type            calculated;
        value           nonuniform List<scalar> 
20
(
0.0118791871
0.00164993666
0.0535423003
0.14303337
0.256814327
0.379115311
0.495324216
0.593284964
0.663783325
0.700664583
0.700827698
0.664213246
0.593825479
0.495781421
0.379333906
0.256742879
0.142749482
0.0532150924
0.00143200306
0.011970861
)
;
    }
    back0
    {
        type            empty;
    }
    front1
    {
        type            empty;
    }
}


// ************************************************************************* //
