/*--------------------------------*- C++ -*----------------------------------*\
| =========                 |                                                 |
| \\      /  F ield         | OpenFOAM: The Open Source CFD Toolbox           |
|  \\    /   O peration     | Version:  3.0.0                                 |
|   \\  /    A nd           | Web:      www.OpenFOAM.org                      |
|    \\/     M anipulation  |                                                 |
\*---------------------------------------------------------------------------*/
FoamFile
{
    version     2.0;
    format      ascii;
    class       volScalarField;
    location    "7";
    object      p;
}
// * * * * * * * * * * * * * * * * * * * * * * * * * * * * * * * * * * * * * //

dimensions      [0 2 -2 0 0 0 0];

internalField   nonuniform List<scalar> 
400
(
7.46732e-06
-0.058189
-0.13048
-0.186321
-0.207281
-0.185036
-0.118958
-0.013957
0.121284
0.275647
0.436635
0.591266
0.726943
0.832385
0.898745
0.921011
0.899828
0.843657
0.771142
0.712954
0.0576559
-0.0021271
-0.0588238
-0.0973513
-0.108548
-0.086561
-0.0306468
0.0556446
0.165723
0.290936
0.421414
0.546856
0.657306
0.743978
0.800142
0.822159
0.810782
0.771971
0.71508
0.655337
0.134128
0.0513231
-0.0100477
-0.0456403
-0.0547761
-0.0342126
0.0159862
0.092367
0.189137
0.298871
0.413135
0.523125
0.62032
0.697144
0.747648
0.768276
0.758955
0.723036
0.661413
0.578638
0.204801
0.0902335
0.0138803
-0.0267364
-0.0378638
-0.0185654
0.0298856
0.103392
0.196102
0.30094
0.410039
0.515224
0.608517
0.682653
0.731576
0.751038
0.73973
0.698699
0.621963
0.507337
0.253497
0.105265
0.0109341
-0.03685
-0.0502586
-0.0304087
0.0200817
0.0961309
0.191396
0.298689
0.410239
0.518029
0.614146
0.691152
0.742422
0.76265
0.749129
0.700844
0.605932
0.457439
0.268633
0.0859317
-0.0271893
-0.0819204
-0.0958566
-0.0720832
-0.0147104
0.0699234
0.17466
0.291863
0.413527
0.531454
0.637452
0.723555
0.782216
0.806759
0.7929
0.73762
0.623657
0.440334
0.240181
0.0218337
-0.109802
-0.169466
-0.180319
-0.147604
-0.0771864
0.0230501
0.144867
0.279947
0.419842
0.555972
0.679649
0.78212
0.854617
0.888761
0.878379
0.818216
0.685425
0.465886
0.157369
-0.0984754
-0.247347
-0.307995
-0.310048
-0.261468
-0.170314
-0.0463421
0.100923
0.262376
0.429077
0.592033
0.742
0.869311
0.963728
1.01479
1.01392
0.953015
0.802659
0.544797
0.00681045
-0.28905
-0.452573
-0.507818
-0.492721
-0.418991
-0.297532
-0.140352
0.0416164
0.238534
0.441121
0.640155
0.825975
0.988034
1.11446
1.19226
1.20974
1.15481
0.98953
0.690549
-0.22932
-0.568128
-0.741506
-0.781391
-0.73717
-0.625923
-0.462286
-0.260893
-0.0340647
0.207912
0.45584
0.700726
0.932915
1.14125
1.31221
1.42984
1.47832
1.43984
1.26462
0.921327
-0.575738
-0.960199
-1.13455
-1.14348
-1.05292
-0.887682
-0.667192
-0.408972
-0.126422
0.170356
0.473037
0.773698
1.06349
1.33128
1.5622
1.737
1.83461
1.82895
1.65306
1.26259
-1.06818
-1.49911
-1.65785
-1.61107
-1.44925
-1.20809
-0.912805
-0.583673
-0.234348
0.126408
0.492429
0.858188
1.21695
1.5588
1.86838
2.12327
2.29604
2.34902
2.18978
1.7514
-1.76129
-2.23297
-2.34474
-2.20256
-1.93336
-1.5873
-1.19578
-0.780748
-0.354401
0.0777481
0.513599
0.951929
1.39007
1.82131
2.23162
2.59653
2.88183
3.03455
2.9245
2.44447
-2.7449
-3.23207
-3.23656
-2.93507
-2.50659
-2.01829
-1.50608
-0.990691
-0.479651
0.0276733
0.535848
1.05045
1.57555
2.11067
2.64643
3.15945
3.61044
3.92849
3.92978
3.43485
-4.17749
-4.60039
-4.37987
-3.81687
-3.15678
-2.48071
-1.82283
-1.19619
-0.598354
-0.0184823
0.557827
1.14586
1.75962
2.40907
3.09504
3.80197
4.49207
5.07953
5.3126
4.88571
-6.34325
-6.48582
-5.81652
-4.83467
-3.84764
-2.93386
-2.11034
-1.37033
-0.693367
-0.0534229
0.57702
1.22568
1.91983
2.68494
3.54033
4.49079
5.51596
6.53203
7.22414
7.08733
-9.75189
-9.07984
-7.56454
-5.94266
-4.51409
-3.31586
-2.31973
-1.47909
-0.744426
-0.0692842
0.58945
1.27359
2.02616
2.89336
3.92417
5.16414
6.63916
8.30659
9.85895
10.5558
-15.5433
-12.6188
-9.51837
-6.98636
-5.01741
-3.52006
-2.37792
-1.47717
-0.727286
-0.0583391
0.587928
1.26605
2.0343
2.96264
4.14154
5.68496
7.70864
10.2996
13.4578
16.4393
-26.6989
-17.2351
-10.9792
-7.32484
-4.90992
-3.25999
-2.11102
-1.26489
-0.591705
-0.00635809
0.554946
1.14983
1.84212
2.71702
3.90464
5.60431
8.08266
11.8138
18.1588
27.7254
-45.35
-21.7257
-10.5196
-6.01121
-3.66546
-2.26807
-1.38776
-0.779809
-0.311086
0.0921261
0.47913
0.892764
1.38228
2.02122
2.94239
4.39197
6.8087
11.4143
22.7344
46.4739
)
;

boundaryField
{
    top
    {
        type            zeroGradient;
    }
    left
    {
        type            zeroGradient;
    }
    right
    {
        type            zeroGradient;
    }
    bottom
    {
        type            zeroGradient;
    }
    back0
    {
        type            empty;
    }
    front1
    {
        type            empty;
    }
}


// ************************************************************************* //
