/*--------------------------------*- C++ -*----------------------------------*\
| =========                 |                                                 |
| \\      /  F ield         | OpenFOAM: The Open Source CFD Toolbox           |
|  \\    /   O peration     | Version:  3.0.1                                 |
|   \\  /    A nd           | Web:      www.OpenFOAM.org                      |
|    \\/     M anipulation  |                                                 |
\*---------------------------------------------------------------------------*/
FoamFile
{
    version     2.0;
    format      ascii;
    class       surfaceScalarField;
    location    "7";
    object      phi;
}
// * * * * * * * * * * * * * * * * * * * * * * * * * * * * * * * * * * * * * //

dimensions      [0 3 -1 0 0 0 0];

internalField   nonuniform List<scalar> 
760
(
1.48336041e-05
-1.48401345e-05
-2.06669246e-05
3.55004967e-05
-0.000112520843
9.1853812e-05
-0.000244614292
0.000132093359
-0.0003968201
0.000152205852
-0.000549709584
0.000152889707
-0.000686466995
0.00013675771
-0.000793771699
0.000107304881
-0.000862076722
6.83049271e-05
-0.000885637968
2.35608958e-05
-0.000862489324
-2.31490428e-05
-0.000794446703
-6.80428003e-05
-0.000687159529
-0.000107286986
-0.000550173556
-0.000136985502
-0.00039690765
-0.000153265421
-0.000244342133
-0.000152565303
-0.000112068375
-0.000132273933
-2.02873191e-05
-9.17815156e-05
1.49802611e-05
-3.5268081e-05
1.4979984e-05
-3.27949089e-05
1.79548083e-05
-0.000177271518
0.000179977234
-0.000430661263
0.000345243597
-0.000762837768
0.000464269742
-0.00113361768
0.000522985539
-0.00150161764
0.000520889512
-0.00182937272
0.000464512862
-0.00208620198
0.000364134468
-0.00224961318
0.000231716511
-0.00230590164
7.98495604e-05
-0.00225037832
-7.86724872e-05
-0.00208745817
-0.000230963347
-0.0018306716
-0.000364073976
-0.0015025047
-0.000465152552
-0.00113381171
-0.000521958203
-0.000762352259
-0.000524024267
-0.000429805996
-0.000464819672
-0.000176504556
-0.000345082637
-3.24525205e-05
-0.000179320119
-1.74729965e-05
-9.02047766e-05
0.000108159536
-0.000352894428
0.000442667069
-0.000760600492
0.00075294987
-0.0012672391
0.000970908402
-0.00181761808
0.00107336432
-0.00235581881
0.00105908989
-0.00283112936
0.000939823152
-0.00320177465
0.000734779831
-0.00343696493
0.000466907201
-0.00351787641
0.000160761583
-0.0034380644
-0.00015848418
-0.00320361208
-0.000465415795
-0.00283310473
-0.000734581826
-0.00235730403
-0.000940953811
-0.00181818914
-0.00106107337
-0.00126684714
-0.00107536607
-0.000759602343
-0.000972063895
-0.000351894285
-0.000752790089
-8.97158075e-05
-0.000441498302
-0.000107189186
-0.000142725316
0.000250884698
-0.00052115551
0.000821097369
-0.00107877695
0.0013105716
-0.00174926987
0.00164140161
-0.00246204169
0.00178613619
-0.00314895762
0.00174600554
-0.00374966723
0.00154053229
-0.00421508537
0.00120019764
-0.00450930203
0.000761123954
-0.00461045083
0.000261910898
-0.00451103964
-0.000257894728
-0.00421807514
-0.000758379929
-0.00375308443
-0.0011995727
-0.0031518948
-0.00154214402
-0.00246380729
-0.00174916151
-0.00174963549
-0.00178953815
-0.00107807179
-0.00164362736
-0.000520126982
-0.00131073433
-0.000142136668
-0.000819488137
-0.000249325963
-0.00019110825
0.000441992774
-0.000682219065
0.0013122081
-0.00138731996
0.00201567266
-0.00221710312
0.00247118515
-0.00308417086
0.00265320431
-0.00390865203
0.00257048678
-0.00462240392
0.00225428385
-0.00517146444
0.00174925759
-0.00551708698
0.00110674609
-0.00563594029
0.00038076428
-0.0055200224
-0.000373812059
-0.00517665193
-0.0011017497
-0.00462865246
-0.00174757174
-0.00391458162
-0.002256215
-0.00308860627
-0.00257513744
-0.00221943947
-0.00265870558
-0.00138773007
-0.00247533704
-0.000681574041
-0.00201689017
-0.000190525803
-0.00131053594
-0.000439851543
-0.000238304823
0.000680297552
-0.000842095547
0.00191599857
-0.0016951402
0.00286871719
-0.00268291761
0.00345896277
-0.00369984127
0.00367012845
-0.00465445383
0.00352509981
-0.00547225675
0.00307208686
-0.00609649781
0.00237349825
-0.00648763926
0.00149788688
-0.00662232815
0.000515452693
-0.00649254269
-0.000503597473
-0.00610533301
-0.00148895878
-0.00548329018
-0.00236961381
-0.00466558413
-0.0030739206
-0.00370911736
-0.00353160433
-0.00268907203
-0.00367875147
-0.00169797565
-0.00346643403
-0.000842533969
-0.00287233211
-0.000237931674
-0.00191513804
-0.000677782797
-0.000287377774
0.000967675502
-0.00100782297
0.00263644352
-0.00201201741
0.00387291126
-0.0031575483
0.00460449349
-0.0043195008
0.00483208121
-0.00539549613
0.00460109575
-0.00630668122
0.0039832725
-0.00699609417
0.00306291132
-0.00742581806
0.00192761032
-0.00757414384
0.000663777739
-0.0074335969
-0.000644144957
-0.00701030801
-0.00191224763
-0.00632488099
-0.00305504023
-0.00541459483
-0.00398420599
-0.00433643051
-0.00460976819
-0.00317000711
-0.00484517498
-0.00201911822
-0.00461732346
-0.00101037817
-0.00388107267
-0.000287535894
-0.00263798046
-0.000965318328
-0.000341212155
0.00130888799
-0.00118606876
0.00348130009
-0.00234617492
0.00503301704
-0.00364749876
0.00590581685
-0.00494510486
0.00612968711
-0.00612756543
0.00578355663
-0.00711505491
0.00497076266
-0.00785418281
0.00380203986
-0.00831193713
0.00238536476
-0.00847043698
0.000822277115
-0.00832350496
-0.000791077751
-0.0078755552
-0.00236019795
-0.00714295056
-0.00378764485
-0.00615769354
-0.00496946242
-0.00497294284
-0.00579451815
-0.00366927771
-0.0061488397
-0.00235988166
-0.00592671962
-0.00119212031
-0.00504883446
-0.000342356197
-0.00348774493
-0.00130767443
-0.000402662193
0.00171155049
-0.00138288311
0.00446152125
-0.00270314631
0.00635328014
-0.00415277706
0.00735544712
-0.00556708773
0.00754399722
-0.006829529
0.00704599768
-0.00786487616
0.00600611017
-0.00862888985
0.0045660543
-0.00909798376
0.00285445935
-0.0092609944
0.000985287906
-0.00911404254
-0.000938030083
-0.00865885405
-0.00281538723
-0.00790464555
-0.00454185391
-0.00687353053
-0.00600057743
-0.00560910038
-0.00705894776
-0.00418713238
-0.00757080702
-0.00272616123
-0.00738769041
-0.00139412397
-0.0063808718
-0.000405385238
-0.00447648398
-0.00171305986
-0.000475110735
0.00218666127
-0.00160423002
0.00559064095
-0.00308522705
0.00783427745
-0.00466468958
0.00893490954
-0.00616057353
0.00903988064
-0.00745844213
0.00834386565
-0.00849632127
0.00704398907
-0.0092469446
0.00531667799
-0.00970204029
0.00330955583
-0.00986075372
0.00114400205
-0.00972275448
-0.00107602916
-0.00928598293
-0.00325215923
-0.00854900058
-0.00527883702
-0.00751809725
-0.00703148129
-0.00621927734
-0.00835776766
-0.00471455787
-0.00907552601
-0.00312030228
-0.00898194542
-0.00162255947
-0.0078786143
-0.000480136514
-0.00561890703
-0.00219319669
-0.000563484082
0.0027501451
-0.00185696118
0.00688411836
-0.0034906321
0.00946794892
-0.00516238849
0.0106066663
-0.00667966468
0.0105571567
-0.00794251187
0.00960671223
-0.00891480769
0.00801628421
-0.00959641028
0.00599828031
-0.0100013152
0.00371446107
-0.0101429407
0.00128562842
-0.0100258831
-0.00119308608
-0.00964324003
-0.00363480213
-0.00897918573
-0.00594289174
-0.00801729007
-0.00799337765
-0.00675563291
-0.0096194253
-0.00522944133
-0.0106017176
-0.00353999248
-0.0106713938
-0.00188425633
-0.00953434999
-0.000571636073
-0.0069315271
-0.002764833
-0.000675948719
0.0034260934
-0.0021498278
0.00835799745
-0.00391097508
0.0112290966
-0.00560625096
0.0123019428
-0.00704802671
0.0119989328
-0.00817076037
0.0107294457
-0.00898119887
0.00882672207
-0.00951808216
0.00653516288
-0.00982460513
0.00402098375
-0.0099319375
0.00139296113
-0.00985079018
-0.00127423265
-0.00956873086
-0.00391686077
-0.00905248759
-0.00645913482
-0.00825621141
-0.00878965419
-0.00713822173
-0.0107374156
-0.00568945454
-0.0120504852
-0.00397535325
-0.0123854951
-0.00218751967
-0.0113221832
-0.000688081006
-0.00843096545
-0.00345291402
-0.000826648691
0.00425274179
-0.00249342132
0.0100247698
-0.00432418466
0.01305986
-0.00592459574
0.0139023544
-0.00714291323
0.013217251
-0.0079778211
0.011564354
-0.00849943293
0.00934833374
-0.00879640136
0.00683213068
-0.00894570127
0.00417028296
-0.00899764731
0.00144490687
-0.00896948471
-0.00130239494
-0.00884345457
-0.00404289022
-0.00856804051
-0.00673454825
-0.00806387575
-0.00929381878
-0.00723867578
-0.0115626158
-0.0060182395
-0.013270922
-0.00440132857
-0.0140024063
-0.00254175614
-0.0131817557
-0.000843508801
-0.0101292126
-0.00429642264
-0.00103952311
0.00529226492
-0.00289549023
0.0118807365
-0.00467633824
0.0148407077
-0.00598720163
0.0152132178
-0.00676819878
0.0139982486
-0.00712209981
0.0119182558
-0.00720203243
0.00942826679
-0.00715181567
0.00678191379
-0.00708046873
0.00409893542
-0.00705437541
0.00141881287
-0.00709612733
-0.00126064331
-0.00718439506
-0.00395462223
-0.00725315067
-0.00666579203
-0.0071919895
-0.00935497941
-0.00685341885
-0.0119011863
-0.00607860043
-0.0140457406
-0.00475889053
-0.0153221166
-0.0029522731
-0.0149883733
-0.00106146534
-0.0120200203
-0.00535788776
-0.00135025133
0.00664251659
-0.00334025589
0.0138707408
-0.00483768113
0.0163381324
-0.0055540486
0.0159295848
-0.00561056953
0.0140547696
-0.00525650331
0.01156419
-0.00473591645
0.00890768063
-0.00423859768
0.00628459546
-0.0038922237
0.00375256135
-0.00376902853
0.00129561716
-0.00389327303
-0.00113639942
-0.00424393258
-0.00360396296
-0.00475113541
-0.006158589
-0.00528768983
-0.00881842449
-0.00566131371
-0.011527562
-0.00562172821
-0.014085326
-0.00491056647
-0.0160332786
-0.00339873252
-0.0165002076
-0.0013765499
-0.014042203
-0.00673443753
-0.00179037792
0.00843289496
-0.00371836107
0.0157987241
-0.00450183526
0.0171216063
-0.00418179667
0.0156095457
-0.00317451687
0.0130474893
-0.00189546736
0.0102851405
-0.000655569872
0.0076677836
0.000344295503
0.00528473073
0.000987448443
0.00310940884
0.00121450056
0.001068565
0.001006003
-0.000927902305
0.00037674062
-0.0029747011
-0.000618094344
-0.00516375429
-0.0018647435
-0.00757177518
-0.00316256875
-0.0102297364
-0.00419629292
-0.0130516015
-0.00454020576
-0.0156893656
-0.00376394179
-0.0172764717
-0.00181751162
-0.0159886334
-0.00855194916
-0.00230764271
0.0107405379
-0.00363211747
0.0171231993
-0.00297442365
0.0164639126
-0.00106889361
0.0137040154
0.00129962219
0.010678973
0.00360817639
0.00797658587
0.00556237769
0.00571358226
0.00701811533
0.00382899349
0.00791404681
0.00221347793
0.00822761969
0.000754992532
0.00795212855
-0.000652411173
0.00708964864
-0.00211222155
0.00565786588
-0.00373197196
0.00371317375
-0.00562708327
0.00139571606
-0.00791227858
-0.00100056607
-0.010655319
-0.00294595418
-0.0137439772
-0.00363940832
-0.0165830174
-0.00232572285
-0.0173023189
-0.0108776721
-0.00251428325
0.0132548211
-0.00191886162
0.016527778
0.00123204976
0.0133130016
0.0051696073
0.00976645797
0.00890995234
0.00693862771
0.0120477007
0.00483883703
0.0144621917
0.00329909093
0.016153307
0.00213787813
0.0171566122
0.00121017303
0.0175035784
0.00040802683
0.0172053082
-0.000354140678
0.0162480111
-0.00115492436
0.0145966908
-0.00208065199
0.0122107379
-0.00324113063
0.00908363886
-0.00478517974
0.00532950013
-0.00690118022
0.00135184668
-0.00976632359
-0.00185633285
-0.0133748377
-0.00250263353
-0.0166560182
-0.0133803057
-0.000525870814
0.0137806916
0.00469116523
0.0113107421
0.0111379057
0.00686626147
0.016719197
0.00418516711
0.0210437616
0.00261406331
0.0242217885
0.00166080998
0.0264601189
0.00106076019
0.027939559
0.000658437667
0.0287868701
0.000362861941
0.0290749922
0.000119904898
0.0288276843
-0.00010683247
0.0280213583
-0.000348598095
0.0265824982
-0.000641791818
0.0243820566
-0.00104068916
0.0212339725
-0.00163709589
0.0169223244
-0.00258953217
0.011326164
-0.00417016319
0.00483124082
-0.0068799144
-0.000460418909
-0.0113643583
-0.0138407246
0.0137806913
0.0250914331
0.0319576945
0.0361428618
0.0387569255
0.0404177358
0.0414784961
0.0421369335
0.0424997951
0.0426196998
0.0425128673
0.0421642694
0.0415224778
0.0404817888
0.038844693
0.0362551607
0.0320849974
0.0252050829
0.0138407246
)
;

boundaryField
{
    top
    {
        type            calculated;
        value           uniform 0;
    }
    left
    {
        type            calculated;
        value           uniform 0;
    }
    right
    {
        type            calculated;
        value           uniform 0;
    }
    bottom
    {
        type            calculated;
        value           uniform 0;
    }
    back0
    {
        type            empty;
        value           nonuniform 0();
    }
    front1
    {
        type            empty;
        value           nonuniform 0();
    }
}


// ************************************************************************* //
