/*--------------------------------*- C++ -*----------------------------------*\
| =========                 |                                                 |
| \\      /  F ield         | OpenFOAM: The Open Source CFD Toolbox           |
|  \\    /   O peration     | Version:  3.0.1                                 |
|   \\  /    A nd           | Web:      www.OpenFOAM.org                      |
|    \\/     M anipulation  |                                                 |
\*---------------------------------------------------------------------------*/
FoamFile
{
    version     2.0;
    format      ascii;
    class       volVectorField;
    location    "7";
    object      W;
}
// * * * * * * * * * * * * * * * * * * * * * * * * * * * * * * * * * * * * * //

dimensions      [0 1 -1 0 0 0 0];

internalField   nonuniform List<vector> 
400
(
(-7.24419672e-09 -1.34295034e-08 0)
(-3.68569765e-08 -4.73955985e-08 0)
(3.42806893e-08 -9.82333432e-08 0)
(1.30279206e-07 -7.6163867e-08 0)
(1.33044869e-07 3.50535589e-08 0)
(8.63930945e-09 1.77594034e-07 0)
(-1.69401711e-07 2.43819825e-07 0)
(-2.61756409e-07 1.5634543e-07 0)
(-1.73724772e-07 -6.06260907e-08 0)
(6.11300609e-08 -2.79343453e-07 0)
(2.90971902e-07 -3.47941174e-07 0)
(3.48953235e-07 -1.9881678e-07 0)
(1.75781306e-07 9.3567331e-08 0)
(-1.29891276e-07 3.5189362e-07 0)
(-3.71674739e-07 4.09825139e-07 0)
(-3.82502288e-07 2.22785846e-07 0)
(-1.3406718e-07 -1.04226503e-07 0)
(2.55211512e-07 -3.94095621e-07 0)
(4.92126177e-07 -4.68266507e-07 0)
(2.98813989e-07 -3.04039045e-07 0)
(3.05814878e-09 -5.6393744e-08 0)
(2.71877669e-08 -4.44102985e-08 0)
(7.03864506e-08 -1.4962065e-07 0)
(1.28683513e-07 -1.80529047e-07 0)
(6.41861107e-08 -5.32383187e-08 0)
(-9.82424572e-08 1.92661324e-07 0)
(-2.39106997e-07 3.96714618e-07 0)
(-2.26683079e-07 3.81101891e-07 0)
(-3.16467422e-08 9.54354348e-08 0)
(2.32672321e-07 -3.14824841e-07 0)
(3.79472674e-07 -5.84505251e-07 0)
(2.82224418e-07 -5.08138077e-07 0)
(-2.5367671e-08 -9.56684424e-08 0)
(-3.58015611e-07 4.14070808e-07 0)
(-4.89815732e-07 7.01943871e-07 0)
(-2.89986379e-07 5.77752684e-07 0)
(1.91371434e-07 9.67738552e-08 0)
(7.24193595e-07 -4.86344566e-07 0)
(7.07497171e-07 -7.633605e-07 0)
(4.29675142e-07 -4.66602523e-07 0)
(-6.97257409e-08 -6.88646246e-08 0)
(-4.75717538e-08 -3.26240142e-08 0)
(2.46642797e-08 -1.63290667e-07 0)
(2.19253711e-07 -2.59128943e-07 0)
(2.62943617e-07 -1.68761416e-07 0)
(8.94879284e-08 1.02712245e-07 0)
(-2.075403e-07 3.95516156e-07 0)
(-4.16499271e-07 4.87603537e-07 0)
(-3.58929102e-07 2.61227213e-07 0)
(-3.31731611e-08 -1.84625685e-07 0)
(3.62690149e-07 -5.74403089e-07 0)
(5.5672263e-07 -6.35282308e-07 0)
(3.92503921e-07 -2.92297507e-07 0)
(-5.18040104e-08 2.64037483e-07 0)
(-4.96609989e-07 6.92495295e-07 0)
(-6.25813292e-07 7.1904771e-07 0)
(-3.00744325e-07 2.99983644e-07 0)
(3.15961558e-07 -3.58938959e-07 0)
(4.51519623e-07 -7.56721025e-07 0)
(3.69030258e-07 -2.35365217e-07 0)
(-1.48500026e-07 2.41738755e-08 0)
(-1.9946124e-07 8.87592696e-08 0)
(-1.61437139e-07 -4.87059438e-10 0)
(1.23672737e-07 -2.20446828e-07 0)
(3.7196487e-07 -3.62576404e-07 0)
(3.87709488e-07 -2.78067194e-07 0)
(1.07991674e-07 3.63975875e-08 0)
(-3.13478694e-07 4.00217925e-07 0)
(-5.85642752e-07 5.58109976e-07 0)
(-4.86080517e-07 3.64710552e-07 0)
(-3.84970125e-08 -9.2691718e-08 0)
(4.79831326e-07 -5.33127513e-07 0)
(7.17539138e-07 -6.64572002e-07 0)
(4.94293938e-07 -3.8415689e-07 0)
(-5.90196197e-08 1.45985646e-07 0)
(-5.68084099e-07 5.97255083e-07 0)
(-6.78599946e-07 6.74436514e-07 0)
(-3.34699017e-07 3.10458375e-07 0)
(-1.0423589e-07 -1.56381442e-07 0)
(9.73562929e-08 1.2097643e-07 0)
(-1.57792034e-07 1.46868544e-07 0)
(-2.92568132e-07 1.7452956e-07 0)
(-3.32796842e-07 2.18686573e-07 0)
(-1.35136573e-07 2.40922371e-08 0)
(2.17678265e-07 -2.93008416e-07 0)
(4.992048e-07 -5.02117746e-07 0)
(4.75136272e-07 -4.04946332e-07 0)
(9.77741797e-08 -3.8128882e-09 0)
(-4.12508873e-07 4.69006719e-07 0)
(-7.02482876e-07 6.94910404e-07 0)
(-5.4097289e-07 4.9272397e-07 0)
(-1.82909382e-09 -3.93565589e-08 0)
(5.68296205e-07 -5.73525903e-07 0)
(7.8388739e-07 -7.66619824e-07 0)
(4.94839052e-07 -4.92366534e-07 0)
(-9.77775191e-08 6.83219351e-08 0)
(-5.92501242e-07 5.40459208e-07 0)
(-7.04293265e-07 6.21022464e-07 0)
(-5.44299005e-07 3.37607444e-07 0)
(-2.03649661e-07 3.32119815e-07 0)
(-5.31207396e-08 1.88516166e-07 0)
(-2.09210821e-07 1.34622148e-07 0)
(-3.25177433e-07 3.33851058e-07 0)
(-3.86947237e-07 3.38237341e-07 0)
(-1.47275221e-07 4.8669286e-08 0)
(2.84768831e-07 -3.72241724e-07 0)
(6.11449222e-07 -6.28540324e-07 0)
(5.55946677e-07 -4.98939772e-07 0)
(9.83003373e-08 -1.29721449e-08 0)
(-4.79491506e-07 5.39934421e-07 0)
(-7.79983893e-07 7.93927934e-07 0)
(-5.76577611e-07 5.6095636e-07 0)
(1.24217692e-08 -2.79841685e-08 0)
(5.95793839e-07 -6.02226684e-07 0)
(7.82231642e-07 -8.01425491e-07 0)
(4.58377221e-07 -5.2144e-07 0)
(-1.39953614e-07 2.06104973e-08 0)
(-6.25641127e-07 4.5908261e-07 0)
(-6.31873267e-07 5.02349716e-07 0)
(-3.6507568e-07 3.07806077e-07 0)
(1.26358985e-07 8.35627742e-08 0)
(5.85805594e-08 -3.71748391e-08 0)
(-7.66753352e-08 2.2391185e-07 0)
(-4.2687421e-07 4.86012674e-07 0)
(-4.95452976e-07 4.47612268e-07 0)
(-1.75194294e-07 7.24519125e-08 0)
(3.53119407e-07 -4.31871964e-07 0)
(7.17257301e-07 -7.27234491e-07 0)
(6.25491834e-07 -5.77934178e-07 0)
(9.65897876e-08 -3.67366722e-08 0)
(-5.31056035e-07 5.66552457e-07 0)
(-8.30200368e-07 8.40383391e-07 0)
(-5.91224113e-07 6.01229266e-07 0)
(2.19882487e-08 3.05027115e-09 0)
(5.8579086e-07 -5.69450313e-07 0)
(7.21189685e-07 -7.66384183e-07 0)
(3.68897717e-07 -5.02422735e-07 0)
(-1.85815197e-07 7.68490029e-09 0)
(-3.408995e-07 3.24286729e-07 0)
(-2.99713354e-07 9.10495097e-08 0)
(2.6662129e-07 -1.18840411e-07 0)
(3.6427294e-07 -2.33779191e-07 0)
(2.90904902e-07 -7.90927854e-08 0)
(-1.75762471e-07 3.08939396e-07 0)
(-5.67945358e-07 5.97874147e-07 0)
(-5.94489241e-07 5.41992363e-07 0)
(-1.8496436e-07 1.04624505e-07 0)
(4.16898147e-07 -4.69983827e-07 0)
(7.96782688e-07 -8.02887737e-07 0)
(6.66711434e-07 -6.46482499e-07 0)
(8.80349585e-08 -7.30276542e-08 0)
(-5.57375986e-07 5.5989239e-07 0)
(-8.35460923e-07 8.48913318e-07 0)
(-5.71958938e-07 6.1987352e-07 0)
(2.47595493e-08 4.15071186e-08 0)
(5.2545916e-07 -4.99543279e-07 0)
(6.14160779e-07 -6.65832157e-07 0)
(3.21858677e-07 -3.99426651e-07 0)
(1.24229084e-07 -2.72014949e-08 0)
(-6.32651369e-08 -1.61283536e-07 0)
(2.55242247e-07 -2.76615726e-07 0)
(4.90808863e-07 -3.01088034e-07 0)
(5.32920774e-07 -3.80386462e-07 0)
(2.36327471e-07 -1.19768188e-07 0)
(-2.68776336e-07 3.43004915e-07 0)
(-6.69464364e-07 6.88226157e-07 0)
(-6.59415819e-07 6.28543327e-07 0)
(-1.86830298e-07 1.42021164e-07 0)
(4.59271896e-07 -4.8588656e-07 0)
(8.38380929e-07 -8.46332839e-07 0)
(6.78387289e-07 -6.90780019e-07 0)
(8.05355324e-08 -1.10031297e-07 0)
(-5.4971474e-07 5.23692514e-07 0)
(-7.96458962e-07 8.12307177e-07 0)
(-5.30432387e-07 6.02191474e-07 0)
(1.69370643e-08 7.75820033e-08 0)
(4.62475451e-07 -3.85064797e-07 0)
(5.81091842e-07 -5.03575339e-07 0)
(4.6294077e-07 -3.0880335e-07 0)
(1.84986629e-07 -2.84315145e-07 0)
(7.16655208e-08 -2.57632063e-07 0)
(3.10796061e-07 -1.5852344e-07 0)
(4.53856224e-07 -4.53811053e-07 0)
(5.39698347e-07 -5.19528266e-07 0)
(2.38512161e-07 -1.80920699e-07 0)
(-3.0978991e-07 3.69558258e-07 0)
(-7.34993282e-07 7.59284814e-07 0)
(-7.01675881e-07 6.95507467e-07 0)
(-1.8824429e-07 1.79887098e-07 0)
(4.7584916e-07 -4.74478625e-07 0)
(8.40903908e-07 -8.48393186e-07 0)
(6.6218324e-07 -7.03580538e-07 0)
(7.44407654e-08 -1.45108661e-07 0)
(-5.13905778e-07 4.57773391e-07 0)
(-7.22123338e-07 7.33045298e-07 0)
(-4.60460124e-07 5.57384251e-07 0)
(4.36083808e-08 1.15183253e-07 0)
(4.58576542e-07 -2.73090414e-07 0)
(4.8126533e-07 -3.53574452e-07 0)
(2.91973705e-07 -2.13002573e-07 0)
(-1.81442301e-07 -4.89807701e-08 0)
(-9.81033868e-08 1.22162263e-07 0)
(6.59737084e-08 -2.17283458e-07 0)
(5.12528796e-07 -5.97551472e-07 0)
(6.24000886e-07 -6.20337785e-07 0)
(2.71118607e-07 -2.20209462e-07 0)
(-3.36162412e-07 3.79696362e-07 0)
(-7.74718337e-07 7.94057325e-07 0)
(-7.19149584e-07 7.33649261e-07 0)
(-1.86937742e-07 2.15816857e-07 0)
(4.66959876e-07 -4.35689085e-07 0)
(8.04616192e-07 -8.09016552e-07 0)
(6.18136778e-07 -6.84149441e-07 0)
(6.77135722e-08 -1.7315547e-07 0)
(-4.52179771e-07 3.7547758e-07 0)
(-6.06909945e-07 6.28299439e-07 0)
(-3.51443025e-07 4.82489312e-07 0)
(7.77923372e-08 9.97882554e-08 0)
(2.10594562e-07 -1.69340159e-07 0)
(2.10165608e-07 -1.81996571e-08 0)
(-3.38897659e-07 2.17442014e-07 0)
(-4.82661571e-07 3.51645793e-07 0)
(-3.94342662e-07 1.86997812e-07 0)
(1.50889792e-07 -2.73159045e-07 0)
(6.2082291e-07 -6.56655069e-07 0)
(6.90635295e-07 -6.75159298e-07 0)
(2.81650281e-07 -2.58080447e-07 0)
(-3.51502581e-07 3.60878206e-07 0)
(-7.80097045e-07 7.87487919e-07 0)
(-7.06639731e-07 7.39259106e-07 0)
(-1.81716792e-07 2.44904686e-07 0)
(4.34087781e-07 -3.75396776e-07 0)
(7.33668715e-07 -7.32681545e-07 0)
(5.52008875e-07 -6.31479928e-07 0)
(6.51790052e-08 -1.84940298e-07 0)
(-3.65392985e-07 2.8787461e-07 0)
(-4.77680013e-07 4.9183588e-07 0)
(-2.88186928e-07 3.51290834e-07 0)
(-1.38003481e-07 8.64398809e-08 0)
(1.76834353e-08 1.54930809e-07 0)
(-2.8809206e-07 3.52452884e-07 0)
(-5.81837444e-07 3.56651014e-07 0)
(-6.20012723e-07 4.81193781e-07 0)
(-3.12967399e-07 2.44642806e-07 0)
(2.23033049e-07 -2.49964784e-07 0)
(6.66846239e-07 -6.73275001e-07 0)
(7.05474992e-07 -7.08833765e-07 0)
(2.7789032e-07 -2.95909973e-07 0)
(-3.45545124e-07 3.17551374e-07 0)
(-7.47783937e-07 7.41512126e-07 0)
(-6.64882036e-07 7.10827189e-07 0)
(-1.71670474e-07 2.62545673e-07 0)
(3.83530663e-07 -3.00343249e-07 0)
(6.39059387e-07 -6.25875137e-07 0)
(4.73280923e-07 -5.49501165e-07 0)
(6.1711742e-08 -1.83793122e-07 0)
(-2.95481604e-07 1.88752687e-07 0)
(-4.16147219e-07 3.35229075e-07 0)
(-3.37372289e-07 2.33508531e-07 0)
(-1.48853929e-07 1.96411915e-07 0)
(-5.4247867e-08 2.50112459e-07 0)
(-3.15350014e-07 1.15991888e-07 0)
(-4.51602658e-07 4.5342957e-07 0)
(-5.68397136e-07 5.9822251e-07 0)
(-3.01972877e-07 3.1814994e-07 0)
(2.23322386e-07 -2.21849632e-07 0)
(6.59702244e-07 -6.66284286e-07 0)
(6.8722957e-07 -7.14287994e-07 0)
(2.68693757e-07 -3.23616946e-07 0)
(-3.17949227e-07 2.58524122e-07 0)
(-6.81388518e-07 6.63953128e-07 0)
(-5.96646787e-07 6.53048447e-07 0)
(-1.54468682e-07 2.67196758e-07 0)
(3.23727121e-07 -2.19444918e-07 0)
(5.29553745e-07 -5.03241558e-07 0)
(3.77767323e-07 -4.54183047e-07 0)
(2.84139337e-08 -1.7529492e-07 0)
(-2.73997496e-07 1.09903731e-07 0)
(-2.97543015e-07 1.97763624e-07 0)
(-1.93271148e-07 1.04221224e-07 0)
(2.11394986e-07 -2.55380189e-08 0)
(1.49643271e-07 -2.07666898e-07 0)
(1.55371063e-09 1.23256161e-07 0)
(-4.49090035e-07 5.44334675e-07 0)
(-6.03941544e-07 6.47081498e-07 0)
(-3.29000792e-07 3.43015594e-07 0)
(2.01880945e-07 -1.93364783e-07 0)
(6.23399574e-07 -6.27434749e-07 0)
(6.44685356e-07 -6.8268281e-07 0)
(2.55646758e-07 -3.29096627e-07 0)
(-2.72793767e-07 1.98928444e-07 0)
(-5.88995978e-07 5.67853732e-07 0)
(-5.09253972e-07 5.71033242e-07 0)
(-1.32101494e-07 2.52983101e-07 0)
(2.56998411e-07 -1.48425588e-07 0)
(4.0494051e-07 -3.82887411e-07 0)
(2.64025871e-07 -3.49435891e-07 0)
(-9.55320822e-09 -1.32470937e-07 0)
(-1.00643396e-07 4.66421846e-08 0)
(-1.16801539e-07 -3.05938663e-08 0)
(3.35690901e-07 -2.78305613e-07 0)
(5.07891804e-07 -3.75135356e-07 0)
(4.30657702e-07 -2.62712119e-07 0)
(-5.621054e-08 1.38029588e-07 0)
(-5.03012467e-07 5.15641221e-07 0)
(-6.20232687e-07 6.12029162e-07 0)
(-3.27014512e-07 3.36895829e-07 0)
(1.83153611e-07 -1.50836586e-07 0)
(5.6938463e-07 -5.45009053e-07 0)
(5.82000901e-07 -6.01707459e-07 0)
(2.33065236e-07 -3.02739054e-07 0)
(-2.24556145e-07 1.42689901e-07 0)
(-4.87097925e-07 4.5185342e-07 0)
(-4.13839533e-07 4.60190017e-07 0)
(-1.07645563e-07 2.13531115e-07 0)
(1.87682131e-07 -9.22514953e-08 0)
(2.85301808e-07 -2.61047581e-07 0)
(1.84000142e-07 -2.24225104e-07 0)
(9.02309966e-08 -8.459769e-08 0)
(1.98364797e-09 -1.05140102e-07 0)
(2.42115938e-07 -3.22059387e-07 0)
(5.20642657e-07 -2.51896717e-07 0)
(5.37505752e-07 -4.24262458e-07 0)
(3.1320491e-07 -3.21931726e-07 0)
(-1.12056493e-07 4.06264869e-08 0)
(-4.83396081e-07 4.20696973e-07 0)
(-5.56913092e-07 5.54743678e-07 0)
(-2.77189864e-07 3.48233378e-07 0)
(1.6919488e-07 -6.44676201e-08 0)
(4.86869492e-07 -4.17855097e-07 0)
(4.80223466e-07 -4.98424777e-07 0)
(1.82547978e-07 -2.82701343e-07 0)
(-1.83700941e-07 6.35916753e-08 0)
(-3.77354626e-07 3.14551697e-07 0)
(-3.0702083e-07 3.39886445e-07 0)
(-7.35243739e-08 1.75080572e-07 0)
(1.36926241e-07 -3.09883938e-08 0)
(2.08500197e-07 -1.38974769e-07 0)
(1.60528561e-07 -1.07864732e-07 0)
(7.74504638e-08 -8.32966557e-08 0)
(-3.8817536e-09 -1.12656268e-07 0)
(1.80395269e-07 7.84499937e-08 0)
(2.50186566e-07 -2.75256778e-07 0)
(3.98301424e-07 -5.45544018e-07 0)
(2.71325465e-07 -4.39483325e-07 0)
(-5.89434002e-08 -3.84381145e-08 0)
(-3.67185972e-07 3.89918908e-07 0)
(-4.38846866e-07 5.73571192e-07 0)
(-2.30371706e-07 4.08173112e-07 0)
(1.08169455e-07 1.69089435e-08 0)
(3.48567655e-07 -3.4357329e-07 0)
(3.47038696e-07 -4.61384206e-07 0)
(1.35408117e-07 -3.02201699e-07 0)
(-1.19349169e-07 -8.78166498e-09 0)
(-2.47155761e-07 2.19511372e-07 0)
(-1.93000147e-07 2.67322651e-07 0)
(-3.41523771e-08 1.61784074e-07 0)
(1.04474823e-07 1.95381267e-08 0)
(1.10394843e-07 -4.07799225e-08 0)
(7.8111153e-08 -1.0074834e-08 0)
(-2.03111061e-07 1.30252741e-07 0)
(-1.82096767e-07 1.84310926e-07 0)
(-1.17171776e-07 -1.54176473e-07 0)
(2.1049644e-07 -4.97866388e-07 0)
(3.60552349e-07 -5.22105839e-07 0)
(2.44146409e-07 -2.19720923e-07 0)
(-3.8318243e-08 2.10801297e-07 0)
(-2.84243207e-07 5.00665295e-07 0)
(-3.34316588e-07 4.80830513e-07 0)
(-1.74092699e-07 1.86414039e-07 0)
(7.0543768e-08 -1.79188257e-07 0)
(2.33431993e-07 -3.90612303e-07 0)
(2.25472441e-07 -3.48897592e-07 0)
(8.46149317e-08 -1.2743701e-07 0)
(-6.95379726e-08 1.04380012e-07 0)
(-1.3256814e-07 2.10548272e-07 0)
(-8.64537275e-08 1.70800822e-07 0)
(5.89771149e-09 6.43417972e-08 0)
(2.74007025e-08 -3.176652e-09 0)
(3.26800594e-08 2.92395885e-08 0)
(-1.64535427e-07 1.81131841e-07 0)
(-1.0784075e-07 2.15211561e-07 0)
(8.19827262e-08 3.38368646e-08 0)
(2.46737894e-07 -2.07996563e-07 0)
(2.23427588e-07 -3.21408458e-07 0)
(4.37467285e-08 -2.38087573e-07 0)
(-1.64128527e-07 -1.1355201e-08 0)
(-2.58734251e-07 2.16022131e-07 0)
(-1.84056093e-07 3.04762063e-07 0)
(-1.86258786e-09 2.10156451e-07 0)
(1.59720109e-07 5.7245872e-09 0)
(1.99696126e-07 -1.73812538e-07 0)
(1.10775517e-07 -2.26611547e-07 0)
(-2.69924527e-08 -1.44896162e-07 0)
(-1.14484766e-07 -5.34842656e-09 0)
(-1.05756187e-07 9.64119784e-08 0)
(-3.18265664e-08 1.12731005e-07 0)
(3.7522091e-08 6.46572521e-08 0)
(3.6956796e-08 1.01373694e-08 0)
(7.61824354e-09 5.83765813e-09 0)
)
;

boundaryField
{
    top
    {
        type            calculated;
        value           uniform (-5.55111512e-15 0 0);
    }
    left
    {
        type            calculated;
        value           uniform (0 0 0);
    }
    right
    {
        type            calculated;
        value           uniform (0 0 0);
    }
    bottom
    {
        type            calculated;
        value           uniform (0 0 0);
    }
    back0
    {
        type            empty;
    }
    front1
    {
        type            empty;
    }
}


// ************************************************************************* //
