/*--------------------------------*- C++ -*----------------------------------*\
| =========                 |                                                 |
| \\      /  F ield         | OpenFOAM: The Open Source CFD Toolbox           |
|  \\    /   O peration     | Version:  3.0.1                                 |
|   \\  /    A nd           | Web:      www.OpenFOAM.org                      |
|    \\/     M anipulation  |                                                 |
\*---------------------------------------------------------------------------*/
FoamFile
{
    version     2.0;
    format      ascii;
    class       volScalarField;
    location    "7";
    object      p;
}
// * * * * * * * * * * * * * * * * * * * * * * * * * * * * * * * * * * * * * //

dimensions      [0 2 -2 0 0 0 0];

internalField   nonuniform List<scalar> 
400
(
7.46732369e-06
-0.0581889809
-0.130479623
-0.18632051
-0.207281258
-0.185036481
-0.118958105
-0.0139569947
0.121283719
0.275647312
0.436634952
0.591266191
0.72694284
0.832385194
0.898744902
0.921011423
0.899827768
0.843657319
0.771142039
0.712954425
0.0576558604
-0.00212710104
-0.0588238074
-0.0973512539
-0.108547586
-0.0865609704
-0.0306467914
0.0556446044
0.165722709
0.290936244
0.421414487
0.546855741
0.657306339
0.743978419
0.800141779
0.822159311
0.810782133
0.771971356
0.715079567
0.655336945
0.13412845
0.0513230564
-0.0100476872
-0.045640305
-0.0547760579
-0.0342126194
0.0159861868
0.0923670117
0.18913717
0.298870935
0.413134623
0.523125212
0.620319784
0.697143855
0.747648454
0.768275878
0.758955215
0.723035571
0.661413319
0.578637835
0.204800757
0.0902335424
0.01388027
-0.026736353
-0.037863783
-0.0185654188
0.0298855503
0.103391919
0.196102206
0.300940106
0.410038929
0.51522387
0.608516979
0.682653373
0.731576148
0.751037852
0.739730195
0.698699424
0.621963102
0.507337273
0.25349712
0.105264797
0.0109340695
-0.036850029
-0.0502585962
-0.0304087175
0.0200816504
0.0961309117
0.191396329
0.298688548
0.410239112
0.518029097
0.614146019
0.691151852
0.7424221
0.76264959
0.749129017
0.700843571
0.605932094
0.457438986
0.268632836
0.0859316529
-0.0271893456
-0.0819204433
-0.0958565551
-0.0720831865
-0.0147103796
0.0699234047
0.174660408
0.291862966
0.413526875
0.531453746
0.637452177
0.723554957
0.782215894
0.806759143
0.792900362
0.737619874
0.623656779
0.440333772
0.240181175
0.0218337376
-0.109801675
-0.169466075
-0.180318538
-0.147603617
-0.0771864233
0.0230501004
0.144867452
0.279947475
0.419842463
0.555972498
0.679648673
0.782119694
0.854616511
0.888761046
0.878378984
0.818215733
0.685425401
0.465885706
0.157369458
-0.0984753774
-0.247346959
-0.30799531
-0.310047949
-0.261468223
-0.170313949
-0.0463420524
0.100922895
0.262375593
0.429076759
0.592033242
0.741999829
0.869310645
0.963728361
1.01478688
1.01391998
0.953014793
0.80265865
0.544796704
0.00681044572
-0.289049634
-0.452573066
-0.507817995
-0.492720652
-0.418990546
-0.297532255
-0.140351885
0.0416163589
0.238533683
0.441121416
0.640154529
0.825974853
0.988033734
1.11446066
1.19226162
1.20974218
1.15481179
0.989529963
0.690549373
-0.229320417
-0.568127684
-0.741505506
-0.781391221
-0.73716983
-0.625922897
-0.462285985
-0.26089335
-0.0340647096
0.207912202
0.455840434
0.700725866
0.932915087
1.14124796
1.31221051
1.42983574
1.47831909
1.43984119
1.26461726
0.921326842
-0.575738214
-0.960199321
-1.13455146
-1.14348321
-1.05292009
-0.887681518
-0.667191789
-0.408972256
-0.126422079
0.170355828
0.473037076
0.773698152
1.06348866
1.33127654
1.56219728
1.7369994
1.8346074
1.82894932
1.6530619
1.26259384
-1.0681829
-1.49910897
-1.65785027
-1.61107458
-1.44925214
-1.20808958
-0.912805136
-0.583672947
-0.234347824
0.126408147
0.492428967
0.858188188
1.21694851
1.5587998
1.86837927
2.12327124
2.29603732
2.34902464
2.18978079
1.75139872
-1.76129237
-2.23296653
-2.34474363
-2.20256449
-1.93335816
-1.58730302
-1.19577774
-0.780747802
-0.354400666
0.077748137
0.513598879
0.951929461
1.39006839
1.82131369
2.23161963
2.59652703
2.88183491
3.0345547
2.92449647
2.444472
-2.74490406
-3.23206579
-3.23656078
-2.93506671
-2.50659444
-2.01828578
-1.50608175
-0.990690541
-0.479650514
0.0276733251
0.535847697
1.05045488
1.5755509
2.11066748
2.64642711
3.15944799
3.61044322
3.92849054
3.92977823
3.43485361
-4.17748583
-4.60039434
-4.37987463
-3.81687288
-3.15678009
-2.48070529
-1.82283303
-1.19619377
-0.598353512
-0.0184822524
0.557827492
1.1458558
1.75962154
2.40906987
3.09504377
3.80197247
4.49207439
5.07953019
5.31259766
4.8857112
-6.34324819
-6.48581522
-5.81651687
-4.83466809
-3.84763914
-2.93385991
-2.1103441
-1.37033472
-0.693367137
-0.0534229438
0.577019587
1.22567571
1.91983397
2.68493961
3.54033358
4.49078816
5.51596136
6.53202557
7.22414219
7.08733026
-9.75189207
-9.07984071
-7.56454187
-5.94265646
-4.51408542
-3.31586281
-2.31972856
-1.47909303
-0.744426295
-0.0692842489
0.589449504
1.27358758
2.0261587
2.89335629
3.92416624
5.16413876
6.63915644
8.30658625
9.85895337
10.555766
-15.5433404
-12.6187634
-9.51836813
-6.98635642
-5.01740597
-3.52005644
-2.37792318
-1.47716552
-0.727285766
-0.0583390551
0.587928
1.26605172
2.03430388
2.96263627
4.14153951
5.68495722
7.70864328
10.2996069
13.457826
16.4393179
-26.6989469
-17.235113
-10.9792112
-7.32483926
-4.90992036
-3.25999207
-2.11102341
-1.26488962
-0.591704835
-0.00635809065
0.554945639
1.14982578
1.84212001
2.71702108
3.90464243
5.60431202
8.08265505
11.8138218
18.1587811
27.7253722
-45.3500433
-21.72569
-10.5196296
-6.0112089
-3.66545827
-2.26806942
-1.38775784
-0.779808904
-0.311085826
0.0921261317
0.479130422
0.892764316
1.38228368
2.02121523
2.94238612
4.39196577
6.80869835
11.4142608
22.7343573
46.473897
)
;

boundaryField
{
    top
    {
        type            zeroGradient;
    }
    left
    {
        type            zeroGradient;
    }
    right
    {
        type            zeroGradient;
    }
    bottom
    {
        type            zeroGradient;
    }
    back0
    {
        type            empty;
    }
    front1
    {
        type            empty;
    }
}


// ************************************************************************* //
