/*--------------------------------*- C++ -*----------------------------------*\
| =========                 |                                                 |
| \\      /  F ield         | OpenFOAM: The Open Source CFD Toolbox           |
|  \\    /   O peration     | Version:  3.0.1                                 |
|   \\  /    A nd           | Web:      www.OpenFOAM.org                      |
|    \\/     M anipulation  |                                                 |
\*---------------------------------------------------------------------------*/
FoamFile
{
    version     2.0;
    format      ascii;
    class       volVectorField;
    location    "7";
    object      U;
}
// * * * * * * * * * * * * * * * * * * * * * * * * * * * * * * * * * * * * * //

dimensions      [0 1 -1 0 0 0 0];

internalField   nonuniform List<vector> 
400
(
(0.000259087994 -0.000255076411 0)
(0.000163253111 0.000103509677 0)
(-0.00114126465 0.000562929699 0)
(-0.00345162683 0.000892681104 0)
(-0.00637456295 0.00105975941 0)
(-0.00950138139 0.001075862 0)
(-0.012462449 0.000965764917 0)
(-0.0149528185 0.000758487601 0)
(-0.0167424706 0.000482987287 0)
(-0.0176781097 0.000166937726 0)
(-0.0176825127 -0.000162993175 0)
(-0.0167540751 -0.000480343318 0)
(-0.0149673995 -0.000757969022 0)
(-0.0124747434 -0.000967393457 0)
(-0.0095071475 -0.00107880048 0)
(-0.0063723735 -0.00106259283 0)
(-0.00344361958 -0.000894006565 0)
(-0.00113222853 -0.000562122966 0)
(0.000168795685 -0.000101411445 0)
(0.000260559367 0.00025626008 0)
(-6.36345271e-05 -0.000192756479 0)
(-0.00156375238 0.00161126564 0)
(-0.0056212989 0.00360996809 0)
(-0.0116624013 0.00506518343 0)
(-0.0188876806 0.00579893392 0)
(-0.0264616805 0.00581606625 0)
(-0.0335808361 0.00520265295 0)
(-0.0395528834 0.00408408669 0)
(-0.0438411276 0.00260080195 0)
(-0.0460817102 0.000897203636 0)
(-0.0460899726 -0.000881786191 0)
(-0.0438629526 -0.00259069918 0)
(-0.0395804524 -0.00408265775 0)
(-0.0336043491 -0.00520996762 0)
(-0.0264731076 -0.00582869621 0)
(-0.0188840552 -0.00581111868 0)
(-0.0116472893 -0.00507122367 0)
(-0.00560339181 -0.00360723676 0)
(-0.00155189897 -0.00160273974 0)
(-6.0127224e-05 0.000198532517 0)
(-0.000508059596 0.00103303355 0)
(-0.00364515434 0.00566232522 0)
(-0.0104977663 0.010212078 0)
(-0.0199304955 0.0134777882 0)
(-0.0307793323 0.0150698522 0)
(-0.0419249918 0.0149606121 0)
(-0.0522861775 0.0133219675 0)
(-0.0609227933 0.0104364151 0)
(-0.0671017831 0.00663926958 0)
(-0.0703241047 0.00228747596 0)
(-0.0703359342 -0.002254138 0)
(-0.0671333749 -0.00661752382 0)
(-0.0609637687 -0.0104336469 0)
(-0.05232324 -0.0133384698 0)
(-0.041946686 -0.014989088 0)
(-0.0307804364 -0.0150978396 0)
(-0.0199143806 -0.0134927109 0)
(-0.0104753154 -0.0102076272 0)
(-0.003628886 -0.00564389132 0)
(-0.000502877303 -0.00101879983 0)
(-0.000901529252 0.00337415075 0)
(-0.00561471678 0.0121027178 0)
(-0.0152160213 0.0199185789 0)
(-0.0278960124 0.0253348653 0)
(-0.0420806361 0.0278175228 0)
(-0.0563930742 0.0273454219 0)
(-0.0695396235 0.0242145241 0)
(-0.0804104947 0.0189084603 0)
(-0.0881486939 0.0120071558 0)
(-0.0921742213 0.00413333332 0)
(-0.0921927202 -0.00407342876 0)
(-0.088199004 -0.0119670951 0)
(-0.0804785969 -0.0189011817 0)
(-0.0696069252 -0.0242412188 0)
(-0.0564423205 -0.0273944598 0)
(-0.0421017945 -0.0278680839 0)
(-0.0278901641 -0.0253649831 0)
(-0.0151953191 -0.0199157301 0)
(-0.00559611097 -0.0120735489 0)
(-0.000894869095 -0.00334871174 0)
(-0.0012487814 0.00671914397 0)
(-0.00746753696 0.0208067011 0)
(-0.0197752619 0.0325561759 0)
(-0.0356414738 0.0403583173 0)
(-0.0530356693 0.0436522748 0)
(-0.0703148029 0.0425094286 0)
(-0.0859995185 0.037414798 0)
(-0.0988569967 0.0291035739 0)
(-0.107956648 0.018440047 0)
(-0.112678279 0.00634468568 0)
(-0.112709215 -0.00624105852 0)
(-0.108042229 -0.0183675575 0)
(-0.0989773614 -0.0290832591 0)
(-0.0861273346 -0.0374502651 0)
(-0.0704227609 -0.0425846853 0)
(-0.0531045819 -0.043736242 0)
(-0.0356666419 -0.0404160392 0)
(-0.0197684347 -0.0325645891 0)
(-0.00745105882 -0.0207705716 0)
(-0.00124127045 -0.00668126451 0)
(-0.0015801739 0.0110106935 0)
(-0.00929263451 0.0317466202 0)
(-0.0243212572 0.048128926 0)
(-0.0433743937 0.0585360779 0)
(-0.0639230267 0.0625112772 0)
(-0.0840449365 0.0603351345 0)
(-0.102093602 0.0527734049 0)
(-0.116751932 0.0408774754 0)
(-0.127060245 0.0258362152 0)
(-0.1323953 0.00888910977 0)
(-0.132446587 -0.00871105036 0)
(-0.127203925 -0.0257053972 0)
(-0.116959601 -0.0408271933 0)
(-0.102324843 -0.0528124412 0)
(-0.0842567989 -0.0604436805 0)
(-0.0640811185 -0.0626456963 0)
(-0.0434628897 -0.0586432833 0)
(-0.0243482663 -0.0481684362 0)
(-0.00928636756 -0.0317151624 0)
(-0.00157323007 -0.0109621107 0)
(-0.00192625546 0.0162550666 0)
(-0.0111928981 0.0449648587 0)
(-0.0290279026 0.0666850346 0)
(-0.0513080658 0.0798756091 0)
(-0.0749610881 0.0843338814 0)
(-0.0977822873 0.0806969715 0)
(-0.11798829 0.0701286158 0)
(-0.134227468 0.0540740362 0)
(-0.145564311 0.0340861008 0)
(-0.151415614 0.0117325384 0)
(-0.151496516 -0.0114321666 0)
(-0.145793055 -0.0338557535 0)
(-0.13456457 -0.0539652612 0)
(-0.118375864 -0.0701597862 0)
(-0.0981555673 -0.0808461448 0)
(-0.0752630641 -0.0845426844 0)
(-0.0515043798 -0.080066296 0)
(-0.0291175779 -0.0667897435 0)
(-0.0112092968 -0.0449617343 0)
(-0.0019223196 -0.0162027055 0)
(-0.00231586323 0.0225188839 0)
(-0.0132686065 0.0605807147 0)
(-0.0340569744 0.0883110874 0)
(-0.0596048732 0.104368565 0)
(-0.0862453074 0.10899734 0)
(-0.111508526 0.103380068 0)
(-0.133533111 0.0892237796 0)
(-0.151009557 0.0684555342 0)
(-0.163100848 0.0430258766 0)
(-0.169320767 0.0148224063 0)
(-0.169440505 -0.0143329545 0)
(-0.163441911 -0.0426373927 0)
(-0.151519886 -0.0682455304 0)
(-0.134134154 -0.0892266152 0)
(-0.112108175 -0.103575265 0)
(-0.0867560001 -0.10931072 0)
(-0.0599644039 -0.104690509 0)
(-0.0342470557 -0.0885331279 0)
(-0.0133249306 -0.0606460634 0)
(-0.00231859432 -0.0224774348 0)
(-0.00277919355 0.0299257511 0)
(-0.0156192246 0.0787852745 0)
(-0.0395457619 0.11310975 0)
(-0.0683430216 0.131941964 0)
(-0.0976948782 0.13624535 0)
(-0.124920479 0.127998149 0)
(-0.148185645 0.109628256 0)
(-0.166341064 0.0836380223 0)
(-0.178753038 0.0523950423 0)
(-0.185108321 0.0180718629 0)
(-0.185273799 -0.0173093055 0)
(-0.17922754 -0.0517729597 0)
(-0.167060694 -0.0832686469 0)
(-0.149050939 -0.109570375 0)
(-0.125809071 -0.128239192 0)
(-0.0984818551 -0.136696932 0)
(-0.0689278765 -0.132456234 0)
(-0.0398814767 -0.113521713 0)
(-0.0157375851 -0.0789798396 0)
(-0.00279365387 -0.02992045 0)
(-0.00335558949 0.0386598326 0)
(-0.0183589908 0.0998286285 0)
(-0.0456106407 0.141148996 0)
(-0.0774898331 0.162368221 0)
(-0.108990994 0.165574067 0)
(-0.137340477 0.153875609 0)
(-0.160905745 0.130632505 0)
(-0.178870108 0.0990104358 0)
(-0.190943378 0.0617852179 0)
(-0.197080753 0.0213406241 0)
(-0.197293183 -0.0202106682 0)
(-0.191556663 -0.0608422224 0)
(-0.179812904 -0.0984096854 0)
(-0.162062658 -0.130467242 0)
(-0.138561441 -0.154151339 0)
(-0.110110877 -0.166194661 0)
(-0.0783600711 -0.16314486 0)
(-0.0461409136 -0.141843445 0)
(-0.0185657495 -0.100236645 0)
(-0.00338840581 -0.0387292561 0)
(-0.00410769587 0.0489852998 0)
(-0.0216450064 0.124008525 0)
(-0.0523542028 0.172385468 0)
(-0.0868591228 0.195134288 0)
(-0.119481303 0.196079163 0)
(-0.147583886 0.179902911 0)
(-0.170007083 0.151130529 0)
(-0.186501481 0.113650961 0)
(-0.197291787 0.0705900908 0)
(-0.202708792 0.0244160605 0)
(-0.202959316 -0.0228287333 0)
(-0.198020693 -0.0692386268 0)
(-0.187639333 -0.112739126 0)
(-0.171435194 -0.150796262 0)
(-0.149136089 -0.180184107 0)
(-0.120957509 -0.19688587 0)
(-0.0880572021 -0.196241894 0)
(-0.0531240542 -0.173469174 0)
(-0.0219690669 -0.124737854 0)
(-0.00416716159 -0.0491838339 0)
(-0.00514672485 0.0612936595 0)
(-0.0257192268 0.151656876 0)
(-0.0598573376 0.206540868 0)
(-0.0960163543 0.229247357 0)
(-0.128010531 0.226252056 0)
(-0.153752929 0.204366553 0)
(-0.172950776 0.169499912 0)
(-0.186211838 0.126253704 0)
(-0.194456686 0.0779668441 0)
(-0.198488982 0.0269985829 0)
(-0.198753978 -0.0248921024 0)
(-0.195235522 -0.0761392927 0)
(-0.187451775 -0.124956379 0)
(-0.174551713 -0.168923194 0)
(-0.155556649 -0.204598299 0)
(-0.129800736 -0.227232057 0)
(-0.0975421303 -0.230734021 0)
(-0.0608943035 -0.208120364 0)
(-0.0261884392 -0.152833974 0)
(-0.00524278004 -0.0616931024 0)
(-0.00667695595 0.0761991901 0)
(-0.0309618155 0.183102322 0)
(-0.0681131817 0.242881296 0)
(-0.104061125 0.262937315 0)
(-0.132609116 0.253713734 0)
(-0.152911305 0.224767302 0)
(-0.166064258 0.183506297 0)
(-0.173836888 0.135093398 0)
(-0.177984694 0.0828291937 0)
(-0.179830233 0.0286992533 0)
(-0.180068021 -0.026072834 0)
(-0.17869467 -0.0805072192 0)
(-0.175001625 -0.133363405 0)
(-0.167632211 -0.182612033 0)
(-0.154769954 -0.224864004 0)
(-0.134563331 -0.254804108 0)
(-0.105835098 -0.264801051 0)
(-0.0694045924 -0.245035399 0)
(-0.0315960024 -0.184858164 0)
(-0.006820845 -0.0768885799 0)
(-0.00906576109 0.0947026362 0)
(-0.0379246422 0.218538326 0)
(-0.0767913886 0.279804175 0)
(-0.109143741 0.293208682 0)
(-0.129924734 0.274900176 0)
(-0.140578598 0.237679783 0)
(-0.144175972 0.19029653 0)
(-0.14385821 0.138083661 0)
(-0.142218385 0.0839087275 0)
(-0.141028906 0.0290636851 0)
(-0.141180999 -0.0260145392 0)
(-0.142689444 -0.0811589613 0)
(-0.144683432 -0.135932436 0)
(-0.145383986 -0.189029525 0)
(-0.142149462 -0.237529644 0)
(-0.131741763 -0.275969885 0)
(-0.110959041 -0.295359029 0)
(-0.07824819 -0.282539179 0)
(-0.0387218196 -0.220978842 0)
(-0.00926852297 -0.0957839706 0)
(-0.0129064934 0.118408536 0)
(-0.0471896937 0.257615165 0)
(-0.0845412803 0.314085572 0)
(-0.10743303 0.315236811 0)
(-0.114222055 0.284803051 0)
(-0.109987086 0.238796071 0)
(-0.100191608 0.186611104 0)
(-0.0892602626 0.13302463 0)
(-0.0803513306 0.079941553 0)
(-0.075427661 0.0276432343 0)
(-0.075428977 -0.0243954517 0)
(-0.0803895591 -0.0769480773 0)
(-0.0894298999 -0.13055896 0)
(-0.100620785 -0.184972275 0)
(-0.110789493 -0.238285716 0)
(-0.115426935 -0.285651542 0)
(-0.108905903 -0.317458343 0)
(-0.0859441541 -0.317272947 0)
(-0.0480970354 -0.260766775 0)
(-0.0131729829 -0.119982476 0)
(-0.0188565004 0.149839411 0)
(-0.0584939836 0.298411259 0)
(-0.0871238226 0.339552562 0)
(-0.0910298028 0.321660365 0)
(-0.075751967 0.276980961 0)
(-0.0511223774 0.223384758 0)
(-0.0247385467 0.169390598 0)
(-0.00161211314 0.118146572 0)
(0.015221438 0.0700342508 0)
(0.0241045357 0.0241323021 0)
(0.024302305 -0.0210356854 0)
(0.0157673067 -0.0671084015 0)
(-0.000856609903 -0.115596924 0)
(-0.023988008 -0.167483966 0)
(-0.050631558 -0.222453468 0)
(-0.0757440627 -0.277375537 0)
(-0.0915838338 -0.323604383 0)
(-0.0880579861 -0.342864165 0)
(-0.0593476791 -0.302137067 0)
(-0.0191649208 -0.151974067 0)
(-0.026462544 0.193171195 0)
(-0.0677000361 0.33501432 0)
(-0.0729896153 0.344651845 0)
(-0.0441147918 0.301756045 0)
(0.00159043184 0.244051746 0)
(0.0502178677 0.18735432 0)
(0.0938180394 0.136864144 0)
(0.128367533 0.092959536 0)
(0.152066823 0.0541905815 0)
(0.164225586 0.0185620069 0)
(0.164617885 -0.0160354774 0)
(0.153198341 -0.051732531 0)
(0.130098914 -0.0906764462 0)
(0.0959095855 -0.13493906 0)
(0.0523327097 -0.186079789 0)
(0.00333419598 -0.24383194 0)
(-0.0430904932 -0.30301398 0)
(-0.0728279109 -0.347547206 0)
(-0.0681295076 -0.338913015 0)
(-0.0267083254 -0.195840587 0)
(-0.0289527593 0.251331318 0)
(-0.0581036139 0.3507419 0)
(-0.014017073 0.309539065 0)
(0.0632658001 0.242400593 0)
(0.142946963 0.180310315 0)
(0.212723819 0.129919438 0)
(0.268472771 0.0905925665 0)
(0.309449319 0.0595774705 0)
(0.336245823 0.0340346009 0)
(0.349654594 0.0115487778 0)
(0.350147701 -0.00995156417 0)
(0.337700442 -0.0324236483 0)
(0.311782819 -0.0579641682 0)
(0.271519281 -0.0890461149 0)
(0.21619815 -0.128613175 0)
(0.146424032 -0.179576152 0)
(0.0662122519 -0.242735894 0)
(-0.0121382469 -0.311417368 0)
(-0.0574832329 -0.354042305 0)
(-0.0288312467 -0.254177677 0)
(0.0132195525 0.289507498 0)
(0.029681679 0.302854564 0)
(0.154179689 0.214068813 0)
(0.282833704 0.142345218 0)
(0.382969607 0.0939486604 0)
(0.457130864 0.0619624438 0)
(0.510502494 0.0405509428 0)
(0.547090513 0.0255474133 0)
(0.569959921 0.0142061204 0)
(0.581116171 0.00473812811 0)
(0.581523402 -0.00414301022 0)
(0.571184994 -0.0135724715 0)
(0.549136899 -0.0248412729 0)
(0.513349857 -0.0397538582 0)
(0.460686705 -0.0611006456 0)
(0.387005993 -0.0931595556 0)
(0.286924353 -0.141969625 0)
(0.157626109 -0.214616954 0)
(0.0318291847 -0.304532301 0)
(0.0142600294 -0.291324499 0)
(0.304245118 0.147454747 0)
(0.405563366 0.127829558 0)
(0.569531334 0.0747835028 0)
(0.686121673 0.0418385766 0)
(0.753522533 0.0238429709 0)
(0.794598215 0.0139302346 0)
(0.820887691 0.00829801988 0)
(0.837586481 0.00488893177 0)
(0.84752229 0.00260053037 0)
(0.852223 0.000835249011 0)
(0.852350806 -0.000772306907 0)
(0.847917608 -0.00252075573 0)
(0.838285539 -0.00477209442 0)
(0.821949452 -0.00811771782 0)
(0.796091301 -0.0136558021 0)
(0.755502851 -0.0234583761 0)
(0.688596477 -0.0413908862 0)
(0.57219481 -0.0744403294 0)
(0.4075242 -0.12786856 0)
(0.305169545 -0.147795834 0)
)
;

boundaryField
{
    top
    {
        type            fixedValue;
        value           uniform (1 0 0);
    }
    left
    {
        type            fixedValue;
        value           uniform (0 0 0);
    }
    right
    {
        type            fixedValue;
        value           uniform (0 0 0);
    }
    bottom
    {
        type            fixedValue;
        value           uniform (0 0 0);
    }
    back0
    {
        type            empty;
    }
    front1
    {
        type            empty;
    }
}


// ************************************************************************* //
