/*--------------------------------*- C++ -*----------------------------------*\
| =========                 |                                                 |
| \\      /  F ield         | OpenFOAM: The Open Source CFD Toolbox           |
|  \\    /   O peration     | Version:  3.0.1                                 |
|   \\  /    A nd           | Web:      www.OpenFOAM.org                      |
|    \\/     M anipulation  |                                                 |
\*---------------------------------------------------------------------------*/
FoamFile
{
    version     2.0;
    format      ascii;
    class       volVectorField;
    location    "7";
    object      vorticity;
}
// * * * * * * * * * * * * * * * * * * * * * * * * * * * * * * * * * * * * * //

dimensions      [0 0 -1 0 0 0 0];

internalField   nonuniform List<vector> 
400
(
(0 -0 -0.00347020201)
(0 -0 0.0221850538)
(0 -0 0.0755173498)
(0 -0 0.156108578)
(0 -0 0.254454244)
(0 -0 0.358690674)
(0 -0 0.457259107)
(0 -0 0.540229243)
(0 -0 0.599920483)
(0 -0 0.631138394)
(0 -0 0.631252043)
(0 -0 0.600220519)
(0 -0 0.540608018)
(0 -0 0.45758261)
(0 -0 0.358850557)
(0 -0 0.254412226)
(0 -0 0.155913787)
(0 -0 0.0752821546)
(0 -0 0.0220148633)
(0 -0 -0.00355280778)
(0 -0 0.0218565675)
(0 -0 0.0761113202)
(0 -0 0.128104194)
(0 -0 0.186678345)
(0 -0 0.251556522)
(0 -0 0.318273294)
(0 -0 0.380917489)
(0 -0 0.433681238)
(0 -0 0.471724294)
(0 -0 0.491634069)
(0 -0 0.491655187)
(0 -0 0.471784282)
(0 -0 0.433771008)
(0 -0 0.381024581)
(0 -0 0.318383874)
(0 -0 0.251655354)
(0 -0 0.186746429)
(0 -0 0.128115708)
(0 -0 0.0760345096)
(0 -0 0.0216764389)
(0 -0 0.0753325349)
(0 -0 0.132300089)
(0 -0 0.174101854)
(0 -0 0.210913853)
(0 -0 0.246757794)
(0 -0 0.28183509)
(0 -0 0.314345904)
(0 -0 0.341749134)
(0 -0 0.361586272)
(0 -0 0.371991035)
(0 -0 0.371977478)
(0 -0 0.361565425)
(0 -0 0.341771985)
(0 -0 0.31447135)
(0 -0 0.282098431)
(0 -0 0.247141164)
(0 -0 0.211330872)
(0 -0 0.174407469)
(0 -0 0.132330394)
(0 -0 0.0749743302)
(0 -0 0.162175904)
(0 -0 0.203668108)
(0 -0 0.225096431)
(0 -0 0.236099222)
(0 -0 0.242668936)
(0 -0 0.247868124)
(0 -0 0.252763794)
(0 -0 0.257268351)
(0 -0 0.260797379)
(0 -0 0.262735897)
(0 -0 0.262728524)
(0 -0 0.260811012)
(0 -0 0.25739469)
(0 -0 0.253108165)
(0 -0 0.248492098)
(0 -0 0.243536222)
(0 -0 0.237046151)
(0 -0 0.225845535)
(0 -0 0.203891912)
(0 -0 0.161606538)
(0 -0 0.282044897)
(0 -0 0.295149497)
(0 -0 0.286568521)
(0 -0 0.265744802)
(0 -0 0.239935019)
(0 -0 0.214143855)
(0 -0 0.191481238)
(0 -0 0.173666863)
(0 -0 0.161526629)
(0 -0 0.155399732)
(0 -0 0.155416236)
(0 -0 0.161627204)
(0 -0 0.173982965)
(0 -0 0.192164916)
(0 -0 0.215285015)
(0 -0 0.241479701)
(0 -0 0.267443785)
(0 -0 0.287984148)
(0 -0 0.295735812)
(0 -0 0.281301971)
(0 -0 0.434347878)
(0 -0 0.408435936)
(0 -0 0.360420984)
(0 -0 0.300489432)
(0 -0 0.237244754)
(0 -0 0.177296121)
(0 -0 0.125311124)
(0 -0 0.084332816)
(0 -0 0.0561929737)
(0 -0 0.0419006944)
(0 -0 0.0419279403)
(0 -0 0.0563468306)
(0 -0 0.084801646)
(0 -0 0.126320422)
(0 -0 0.178995513)
(0 -0 0.239588794)
(0 -0 0.30314998)
(0 -0 0.362772641)
(0 -0 0.409645635)
(0 -0 0.433583223)
(0 -0 0.619556146)
(0 -0 0.5440594)
(0 -0 0.446464676)
(0 -0 0.338793263)
(0 -0 0.231436431)
(0 -0 0.132583239)
(0 -0 0.048165737)
(0 -0 -0.0178489)
(0 -0 -0.063008948)
(0 -0 -0.085928004)
(0 -0 -0.085943739)
(0 -0 -0.062951086)
(0 -0 -0.017437477)
(0 -0 0.049284274)
(0 -0 0.134684779)
(0 -0 0.234547304)
(0 -0 0.342544551)
(0 -0 0.450033511)
(0 -0 0.54625601)
(0 -0 0.61909804)
(0 -0 0.839525367)
(0 -0 0.7021853)
(0 -0 0.543057096)
(0 -0 0.377212084)
(0 -0 0.217452931)
(0 -0 0.073646313)
(0 -0 -0.047271788)
(0 -0 -0.14084307)
(0 -0 -0.204444009)
(0 -0 -0.236661241)
(0 -0 -0.23682516)
(0 -0 -0.204780909)
(0 -0 -0.140930985)
(0 -0 -0.046546596)
(0 -0 0.075693989)
(0 -0 0.22103547)
(0 -0 0.382010888)
(0 -0 0.548083444)
(0 -0 0.705839814)
(0 -0 0.839948325)
(0 -0 1.09750752)
(0 -0 0.882743832)
(0 -0 0.647103558)
(0 -0 0.410205599)
(0 -0 0.188018716)
(0 -0 -0.00785143)
(0 -0 -0.169874927)
(0 -0 -0.293726627)
(0 -0 -0.377236294)
(0 -0 -0.419443618)
(0 -0 -0.419921446)
(0 -0 -0.378445894)
(0 -0 -0.295043973)
(0 -0 -0.170420411)
(0 -0 -0.00673291)
(0 -0 0.191378349)
(0 -0 0.415708862)
(0 -0 0.653702523)
(0 -0 0.888420819)
(0 -0 1.09970101)
(0 -0 1.39816963)
(0 -0 1.08514945)
(0 -0 0.753480334)
(0 -0 0.429411722)
(0 -0 0.132938128)
(0 -0 -0.12278155)
(0 -0 -0.330437352)
(0 -0 -0.486868701)
(0 -0 -0.591310627)
(0 -0 -0.643954151)
(0 -0 -0.644973295)
(0 -0 -0.594058642)
(0 -0 -0.490463806)
(0 -0 -0.333573986)
(0 -0 -0.12400401)
(0 -0 0.134821329)
(0 -0 0.434805416)
(0 -0 0.761507925)
(0 -0 1.09345671)
(0 -0 1.40339409)
(0 -0 1.7478496)
(0 -0 1.30760404)
(0 -0 0.853724599)
(0 -0 0.422202162)
(0 -0 0.0378816)
(0 -0 -0.28536182)
(0 -0 -0.54206919)
(0 -0 -0.731987082)
(0 -0 -0.857215925)
(0 -0 -0.920105951)
(0 -0 -0.921938923)
(0 -0 -0.862315337)
(0 -0 -0.739187642)
(0 -0 -0.54955926)
(0 -0 -0.290944)
(0 -0 0.03632072)
(0 -0 0.425987552)
(0 -0 0.862574299)
(0 -0 1.3190803)
(0 -0 1.75776062)
(0 -0 2.15519796)
(0 -0 1.54564018)
(0 -0 0.933494599)
(0 -0 0.369131902)
(0 -0 -0.11752991)
(0 -0 -0.51424725)
(0 -0 -0.82055674)
(0 -0 -1.04197661)
(0 -0 -1.18562214)
(0 -0 -1.25737506)
(0 -0 -1.26029171)
(0 -0 -1.193903)
(0 -0 -1.05421609)
(0 -0 -0.83444903)
(0 -0 -0.52674998)
(0 -0 -0.125299)
(0 -0 0.368895889)
(0 -0 0.941805852)
(0 -0 1.56054197)
(0 -0 2.1718076)
(0 -0 2.63220548)
(0 -0 1.78887521)
(0 -0 0.96769044)
(0 -0 0.239598247)
(0 -0 -0.3625581)
(0 -0 -0.83381768)
(0 -0 -1.18448708)
(0 -0 -1.43030731)
(0 -0 -1.58632446)
(0 -0 -1.66362104)
(0 -0 -1.66779452)
(0 -0 -1.59836649)
(0 -0 -1.44873157)
(0 -0 -1.20668326)
(0 -0 -0.85599262)
(0 -0 -0.3799602)
(0 -0 0.231856197)
(0 -0 0.972967735)
(0 -0 1.80680199)
(0 -0 2.65772487)
(0 -0 3.194705)
(0 -0 2.01329417)
(0 -0 0.910984546)
(0 -0 -0.01532094)
(0 -0 -0.7391596)
(0 -0 -1.27527865)
(0 -0 -1.65468772)
(0 -0 -1.90964428)
(0 -0 -2.06653339)
(0 -0 -2.14325839)
(0 -0 -2.1486169)
(0 -0 -2.08223008)
(0 -0 -1.93442289)
(0 -0 -1.68608634)
(0 -0 -1.30920821)
(0 -0 -0.76965781)
(0 -0 -0.03498489)
(0 -0 0.909197487)
(0 -0 2.03256241)
(0 -0 3.2311495)
(0 -0 3.8581444)
(0 -0 2.16246377)
(0 -0 0.6795408)
(0 -0 -0.473964592)
(0 -0 -1.30613507)
(0 -0 -1.87648168)
(0 -0 -2.25208866)
(0 -0 -2.48915648)
(0 -0 -2.62821219)
(0 -0 -2.69470446)
(0 -0 -2.70074616)
(0 -0 -2.64620259)
(0 -0 -2.5185102)
(0 -0 -2.29122734)
(0 -0 -1.92197171)
(0 -0 -1.35170327)
(0 -0 -0.509966122)
(0 -0 0.665013641)
(0 -0 2.1791633)
(0 -0 3.90645649)
(0 -0 4.61806721)
(0 -0 2.10223493)
(0 -0 0.11697441)
(0 -0 -1.25889839)
(0 -0 -2.14088094)
(0 -0 -2.67795317)
(0 -0 -2.99247833)
(0 -0 -3.16984143)
(0 -0 -3.26432424)
(0 -0 -3.30723183)
(0 -0 -3.31287566)
(0 -0 -3.28149139)
(0 -0 -3.19904378)
(0 -0 -3.03386915)
(0 -0 -2.73013774)
(0 -0 -2.19912046)
(0 -0 -1.31304038)
(0 -0 0.083510728)
(0 -0 2.1092257)
(0 -0 4.67646476)
(0 -0 5.38281774)
(0 -0 1.5109028)
(0 -0 -1.06365025)
(0 -0 -2.54895702)
(0 -0 -3.33100655)
(0 -0 -3.71033798)
(0 -0 -3.87606102)
(0 -0 -3.93734995)
(0 -0 -3.95421914)
(0 -0 -3.95776117)
(0 -0 -3.96139934)
(0 -0 -3.96574104)
(0 -0 -3.95845958)
(0 -0 -3.90910632)
(0 -0 -3.75722588)
(0 -0 -3.39102286)
(0 -0 -2.61511352)
(0 -0 -1.11818774)
(0 -0 1.49842173)
(0 -0 5.44419928)
(0 -0 5.62391122)
(0 -0 -0.391739681)
(0 -0 -3.35510611)
(0 -0 -4.56177246)
(0 -0 -4.9386033)
(0 -0 -4.96630745)
(0 -0 -4.87026422)
(0 -0 -4.75280946)
(0 -0 -4.65921791)
(0 -0 -4.6087675)
(0 -0 -4.60877943)
(0 -0 -4.65999257)
(0 -0 -4.75660452)
(0 -0 -4.88089278)
(0 -0 -4.98884032)
(0 -0 -4.97794516)
(0 -0 -4.61856062)
(0 -0 -3.41760431)
(0 -0 -0.427190013)
(0 -0 5.67251627)
(0 -0 2.59164185)
(0 -0 -5.39105665)
(0 -0 -7.44057753)
(0 -0 -7.42976026)
(0 -0 -6.90958344)
(0 -0 -6.35272114)
(0 -0 -5.88829951)
(0 -0 -5.54481984)
(0 -0 -5.32085752)
(0 -0 -5.20917537)
(0 -0 -5.20513705)
(0 -0 -5.30915429)
(0 -0 -5.52684107)
(0 -0 -5.86689544)
(0 -0 -6.33298848)
(0 -0 -6.89947798)
(0 -0 -7.43841624)
(0 -0 -7.46895733)
(0 -0 -5.41714978)
(0 -0 2.61856008)
(0 -0 -14.0725102)
(0 -0 -16.374262)
(0 -0 -13.6227996)
(0 -0 -10.8198515)
(0 -0 -8.91416202)
(0 -0 -7.63815872)
(0 -0 -6.77651118)
(0 -0 -6.21020496)
(0 -0 -5.86571472)
(0 -0 -5.70033666)
(0 -0 -5.69481797)
(0 -0 -5.84897186)
(0 -0 -6.18174524)
(0 -0 -6.73584399)
(0 -0 -7.58562652)
(0 -0 -8.8522624)
(0 -0 -10.7546112)
(0 -0 -13.5665675)
(0 -0 -16.3400212)
(0 -0 -14.0490603)
)
;

boundaryField
{
    top
    {
        type            calculated;
        value           nonuniform List<vector> 
20
(
(0 -0 -25.0773522)
(0 -0 -24.5041778)
(0 -0 -18.0786565)
(0 -0 -13.0645384)
(0 -0 -10.1381821)
(0 -0 -8.37152091)
(0 -0 -7.25490539)
(0 -0 -6.55351566)
(0 -0 -6.13964523)
(0 -0 -5.94480837)
(0 -0 -5.93952781)
(0 -0 -6.12329356)
(0 -0 -6.52454806)
(0 -0 -7.210859)
(0 -0 -8.30975454)
(0 -0 -10.0572368)
(0 -0 -12.9659605)
(0 -0 -17.9769843)
(0 -0 -24.432587)
(0 -0 -25.0365743)
)
;
    }
    left
    {
        type            calculated;
        value           nonuniform List<vector> 
20
(
(0 -0 -0.0121575911)
(0 -0 -3.878326e-05)
(0 -0 0.0497002892)
(0 -0 0.142373248)
(0 -0 0.275552205)
(0 -0 0.447202481)
(0 -0 0.657559557)
(0 -0 0.909284737)
(0 -0 1.20742731)
(0 -0 1.55967833)
(0 -0 1.97732335)
(0 -0 2.47743898)
(0 -0 3.08715797)
(0 -0 3.85040082)
(0 -0 4.83424883)
(0 -0 6.12913695)
(0 -0 7.82781039)
(0 -0 9.65643175)
(0 -0 8.24832115)
(0 -0 -10.9271634)
)
;
    }
    right
    {
        type            calculated;
        value           nonuniform List<vector> 
20
(
(0 -0 -0.0122547246)
(0 -0 -0.00030693398)
(0 -0 0.0490994119)
(0 -0 0.141332401)
(0 -0 0.27403419)
(0 -0 0.44529492)
(0 -0 0.655561862)
(0 -0 0.907810735)
(0 -0 1.20751611)
(0 -0 1.56290532)
(0 -0 1.9858971)
(0 -0 2.49426093)
(0 -0 3.11580063)
(0 -0 3.8948802)
(0 -0 4.89826302)
(0 -0 6.2143161)
(0 -0 7.93028674)
(0 -0 9.75742353)
(0 -0 8.31297204)
(0 -0 -10.8938709)
)
;
    }
    bottom
    {
        type            calculated;
        value           nonuniform List<vector> 
20
(
(0 -0 -0.0118791871)
(0 -0 0.00164993666)
(0 -0 0.0535423003)
(0 -0 0.14303337)
(0 -0 0.256814327)
(0 -0 0.379115311)
(0 -0 0.495324216)
(0 -0 0.593284964)
(0 -0 0.663783325)
(0 -0 0.700664583)
(0 -0 0.700827698)
(0 -0 0.664213246)
(0 -0 0.593825479)
(0 -0 0.495781421)
(0 -0 0.379333906)
(0 -0 0.256742879)
(0 -0 0.142749482)
(0 -0 0.0532150924)
(0 -0 0.00143200306)
(0 -0 -0.011970861)
)
;
    }
    back0
    {
        type            empty;
    }
    front1
    {
        type            empty;
    }
}


// ************************************************************************* //
