/*--------------------------------*- C++ -*----------------------------------*\
| =========                 |                                                 |
| \\      /  F ield         | OpenFOAM: The Open Source CFD Toolbox           |
|  \\    /   O peration     | Version:  3.0.1                                 |
|   \\  /    A nd           | Web:      www.OpenFOAM.org                      |
|    \\/     M anipulation  |                                                 |
\*---------------------------------------------------------------------------*/
FoamFile
{
    version     2.0;
    format      ascii;
    class       volScalarField;
    location    "8";
    object      magVorticity;
}
// * * * * * * * * * * * * * * * * * * * * * * * * * * * * * * * * * * * * * //

dimensions      [0 0 -1 0 0 0 0];

internalField   nonuniform List<scalar> 
400
(
0.00347019934
0.0221848612
0.075517235
0.156108513
0.254454191
0.358690624
0.45725907
0.540229231
0.599920497
0.63113842
0.631252057
0.600220507
0.54060798
0.457582567
0.358850531
0.254412236
0.155913831
0.0752822156
0.02201491
0.0035528103
0.0218567664
0.0761113224
0.128104157
0.186678305
0.251556483
0.31827326
0.380917466
0.43368123
0.471724301
0.491634077
0.491655188
0.471784268
0.433770981
0.381024556
0.318383865
0.251655366
0.186746457
0.128115734
0.0760345076
0.0216763879
0.0753326509
0.132300125
0.174101853
0.210913839
0.246757776
0.281835072
0.314345889
0.341749125
0.361586267
0.371991034
0.371977475
0.361565417
0.341771975
0.314471341
0.282098428
0.247141167
0.211330878
0.174407469
0.132330366
0.0749742694
0.162175961
0.20366814
0.225096443
0.236099222
0.24266893
0.247868117
0.252763787
0.257268342
0.260797376
0.262735888
0.262728526
0.260811006
0.257394687
0.253108163
0.248492095
0.243536221
0.23704615
0.225845527
0.203891887
0.161606499
0.282044935
0.295149525
0.286568536
0.265744808
0.239935018
0.214143851
0.191481231
0.173666864
0.161526622
0.155399722
0.15541623
0.161627199
0.173982969
0.19216491
0.215285014
0.241479699
0.267443784
0.287984144
0.295735803
0.281301966
0.434347917
0.408435967
0.360421
0.30048944
0.237244757
0.17729612
0.125311121
0.084332822
0.0561929572
0.0419006998
0.0419279258
0.0563468282
0.084801649
0.126320416
0.178995512
0.239588793
0.303149978
0.362772643
0.409645645
0.433583249
0.619556188
0.544059432
0.446464693
0.338793271
0.231436436
0.132583243
0.048165745
0.017848903
0.063008944
0.085927995
0.085943738
0.062951083
0.017437489
0.04928428
0.134684782
0.234547304
0.34254455
0.450033516
0.546256031
0.619098079
0.839525402
0.702185324
0.543057116
0.377212093
0.217452925
0.073646314
0.047271785
0.140843076
0.204444
0.236661248
0.236825163
0.204780909
0.140930992
0.046546598
0.075693984
0.221035476
0.382010894
0.548083442
0.705839832
0.839948351
1.09750753
0.882743849
0.647103562
0.410205608
0.188018723
0.00785143
0.169874927
0.293726626
0.377236295
0.419443627
0.419921452
0.378445896
0.295043966
0.170420421
0.00673292
0.191378346
0.415708875
0.653702525
0.88842082
1.09970101
1.39816962
1.08514945
0.753480338
0.429411722
0.132938133
0.12278154
0.330437348
0.486868705
0.591310623
0.643954149
0.644973282
0.594058636
0.490463807
0.33357398
0.12400401
0.134821331
0.434805424
0.761507921
1.09345669
1.40339406
1.74784957
1.30760403
0.853724597
0.422202167
0.03788162
0.28536182
0.5420692
0.731987093
0.857215923
0.920105945
0.92193892
0.862315342
0.739187657
0.54955927
0.290944
0.03632073
0.425987543
0.862574292
1.31908029
1.75776059
2.15519794
1.54564017
0.933494599
0.369131901
0.11752992
0.51424723
0.82055673
1.04197661
1.18562213
1.25737506
1.26029171
1.193903
1.05421608
0.83444903
0.52674999
0.125299
0.368895889
0.941805847
1.56054196
2.17180758
2.63220548
1.78887522
0.967690454
0.239598256
0.3625581
0.83381769
1.18448707
1.4303073
1.58632446
1.66362103
1.66779451
1.59836649
1.44873157
1.20668325
0.85599263
0.37996021
0.231856195
0.972967736
1.80680199
2.65772487
3.19470503
2.01329419
0.910984563
0.01532094
0.73915961
1.27527865
1.65468773
1.90964428
2.06653339
2.14325838
2.1486169
2.08223008
1.9344229
1.68608635
1.30920821
0.7696578
0.03498489
0.909197488
2.03256241
3.23114952
3.85814445
2.16246379
0.679540805
0.473964597
1.30613507
1.87648168
2.25208867
2.48915648
2.62821219
2.69470447
2.70074616
2.6462026
2.5185102
2.29122733
1.9219717
1.35170327
0.509966118
0.665013645
2.1791633
3.90645651
4.61806723
2.10223494
0.116974422
1.25889838
2.14088094
2.67795318
2.99247833
3.16984143
3.26432423
3.30723183
3.31287566
3.28149139
3.19904377
3.03386915
2.73013774
2.19912047
1.31304037
0.083510739
2.1092257
4.67646476
5.38281773
1.5109028
1.06365024
2.54895702
3.33100656
3.71033798
3.87606101
3.93734995
3.95421914
3.95776117
3.96139933
3.96574105
3.95845959
3.90910632
3.75722588
3.39102287
2.61511352
1.11818774
1.49842173
5.44419926
5.62391117
0.391739689
3.35510612
4.56177245
4.93860329
4.96630745
4.87026423
4.75280945
4.65921789
4.6087675
4.60877942
4.65999257
4.75660453
4.88089279
4.98884033
4.97794515
4.61856062
3.41760432
0.427190019
5.67251627
2.59164181
5.39105665
7.44057751
7.42976024
6.90958346
6.35272116
5.88829951
5.54481984
5.3208575
5.20917534
5.20513704
5.30915428
5.52684106
5.86689544
6.33298848
6.89947797
7.43841622
7.46895733
5.41714979
2.61856008
14.0725103
16.374262
13.6227995
10.8198515
8.91416203
7.63815876
6.77651121
6.21020496
5.86571471
5.70033663
5.69481794
5.84897185
6.18174526
6.73584399
7.58562653
8.85226241
10.7546112
13.5665675
16.3400212
14.0490603
)
;

boundaryField
{
    top
    {
        type            calculated;
        value           nonuniform List<scalar> 
20
(
25.0773522
24.5041778
18.0786564
13.0645384
10.1381821
8.37152096
7.25490545
6.55351567
6.13964523
5.94480836
5.93952775
6.12329354
6.5245481
7.210859
8.30975455
10.0572368
12.9659605
17.9769843
24.432587
25.0365743
)
;
    }
    left
    {
        type            calculated;
        value           nonuniform List<scalar> 
20
(
0.0121574478
3.838457e-05
0.0497004819
0.14237333
0.275552258
0.447202537
0.657559613
0.909284777
1.20742731
1.5596783
1.97732331
2.47743896
3.08715798
3.85040088
4.83424892
6.12913698
7.82781037
9.65643166
8.24832107
10.9271634
)
;
    }
    right
    {
        type            calculated;
        value           nonuniform List<scalar> 
20
(
0.012254736
0.00030700391
0.0490993238
0.14133234
0.274034175
0.445294951
0.655561919
0.907810779
1.20751612
1.56290529
1.98589705
2.4942609
3.11580063
3.89488022
4.89826307
6.21431611
7.9302867
9.75742353
8.31297204
10.8938709
)
;
    }
    bottom
    {
        type            calculated;
        value           nonuniform List<scalar> 
20
(
0.0118793245
0.00164954468
0.0535421074
0.143033276
0.256814254
0.379115245
0.495324172
0.59328496
0.663783356
0.700664628
0.700827716
0.664213223
0.59382542
0.495781361
0.379333876
0.256742902
0.142749551
0.0532151816
0.00143206784
0.011970855
)
;
    }
    back0
    {
        type            empty;
    }
    front1
    {
        type            empty;
    }
}


// ************************************************************************* //
