/*--------------------------------*- C++ -*----------------------------------*\
| =========                 |                                                 |
| \\      /  F ield         | OpenFOAM: The Open Source CFD Toolbox           |
|  \\    /   O peration     | Version:  3.0.1                                 |
|   \\  /    A nd           | Web:      www.OpenFOAM.org                      |
|    \\/     M anipulation  |                                                 |
\*---------------------------------------------------------------------------*/
FoamFile
{
    version     2.0;
    format      ascii;
    class       volScalarField;
    location    "8";
    object      p;
}
// * * * * * * * * * * * * * * * * * * * * * * * * * * * * * * * * * * * * * //

dimensions      [0 2 -2 0 0 0 0];

internalField   nonuniform List<scalar> 
400
(
6.20232349e-06
-0.0581911666
-0.130482018
-0.186322938
-0.207283693
-0.185038907
-0.118960522
-0.0139594144
0.121281279
0.275644844
0.436632466
0.591263711
0.726940388
0.83238278
0.898742514
0.921009032
0.899825344
0.843654845
0.771139523
0.712951885
0.0576536876
-0.00212942331
-0.0588261916
-0.0973536742
-0.108550029
-0.0865634134
-0.0306492165
0.0556421976
0.165720303
0.290933816
0.421412024
0.546853252
0.657303851
0.743975959
0.800139361
0.822156923
0.810779745
0.771968934
0.715077095
0.655334433
0.134126075
0.0513206943
-0.0100500647
-0.045642718
-0.054778509
-0.0342150889
0.0159837306
0.0923645915
0.189134783
0.298868553
0.413132209
0.523122746
0.620317278
0.697141346
0.747645982
0.768273462
0.758952838
0.723033191
0.6614109
0.578635369
0.204798339
0.0902311614
0.0138778974
-0.0267387468
-0.0378662201
-0.0185678976
0.0298830595
0.103389457
0.196099798
0.300937741
0.410036563
0.515221458
0.608514499
0.682650846
0.731573624
0.751035377
0.739727783
0.698697047
0.621960717
0.507334857
0.253494666
0.105262385
0.0109316884
-0.0368524036
-0.0502609979
-0.0304111706
0.0200791524
0.0961284075
0.191393866
0.298686149
0.410236758
0.518026737
0.614143603
0.691149363
0.742419565
0.762647064
0.749126544
0.700841155
0.605929708
0.4574366
0.268630359
0.0859292049
-0.0271917587
-0.0819228235
-0.0958589273
-0.0720855903
-0.0147128417
0.0699208941
0.174657893
0.291860498
0.413524478
0.531451396
0.637449819
0.72355254
0.782213404
0.806756612
0.792897843
0.737617404
0.623654361
0.440331383
0.240178702
0.0218312619
-0.109804135
-0.169468495
-0.180320916
-0.147605982
-0.0771888243
0.0230476336
0.144864932
0.279944951
0.419839991
0.555970099
0.679646323
0.782117335
0.854614095
0.888758562
0.878376466
0.81821323
0.685422943
0.465883289
0.157367014
-0.0984778551
-0.247349454
-0.307997787
-0.310050372
-0.261470593
-0.170316305
-0.0463444489
0.100920426
0.262373066
0.429074229
0.592030765
0.741997427
0.869308292
0.963726
1.01478447
1.01391751
0.953012297
0.802656167
0.544794252
0.00680803974
-0.289052084
-0.45257556
-0.507820508
-0.492723138
-0.418992967
-0.297534617
-0.140354233
0.0416139663
0.238531213
0.441118886
0.640151997
0.825972375
0.98803133
1.1144583
1.19225926
1.20973977
1.15480933
0.989527484
0.690546899
-0.229322802
-0.568130095
-0.741507961
-0.781393725
-0.737172352
-0.625925387
-0.462288404
-0.260895706
-0.0340670519
0.207909812
0.455837965
0.700723338
0.932912558
1.14124549
1.31220811
1.42983337
1.47831672
1.43983877
1.2646148
0.921324368
-0.575740613
-0.960201708
-1.13455387
-1.14348567
-1.0529226
-0.887684046
-0.667194282
-0.408974675
-0.126424433
0.170353487
0.473034687
0.773695686
1.06348614
1.33127402
1.5621948
1.73699699
1.83460502
1.82894693
1.65305947
1.26259139
-1.06818535
-1.49911136
-1.65785264
-1.61107697
-1.44925458
-1.20809209
-0.912807668
-0.583675442
-0.234350245
0.126405789
0.492426621
0.858185796
1.21694605
1.55879729
1.86837676
2.12326877
2.2960349
2.34902224
2.18977838
1.75139629
-1.76129486
-2.23296897
-2.34474601
-2.20256684
-1.93336055
-1.58730547
-1.19578025
-0.780750335
-0.354403162
0.0777457125
0.513596514
0.951927107
1.390066
1.82131123
2.23161713
2.59652453
2.88183243
3.03455226
2.92449406
2.44446958
-2.74490657
-3.23206827
-3.23656321
-2.93506909
-2.5065968
-2.01828816
-1.5060842
-0.99069305
-0.479653044
0.0276708299
0.535845267
1.05045251
1.57554853
2.11066508
2.64642465
3.1594455
3.61044072
3.92848808
3.9297758
3.43485119
-4.17748832
-4.60039684
-4.37987711
-3.81687532
-3.15678248
-2.48070765
-1.82283541
-1.19619621
-0.598356014
-0.0184847745
0.557824999
1.14585336
1.75961915
2.40906749
3.09504136
3.80197002
4.49207191
5.07952772
5.3125952
4.88570877
-6.34325063
-6.4858177
-5.81651938
-4.83467059
-3.84764159
-2.9338623
-2.11034647
-1.3703371
-0.693369575
-0.053425437
0.577017073
1.22567322
1.91983153
2.6849372
3.54033119
4.49078574
5.51595891
6.53202311
7.22413973
7.08732782
-9.75189447
-9.07984316
-7.56454437
-5.94265898
-4.51408791
-3.31586526
-2.31973095
-1.47909539
-0.74442868
-0.0692866865
0.589447017
1.27358507
2.02615622
2.89335385
3.92416383
5.16413635
6.63915402
8.30658381
9.85895092
10.5557636
-15.5433428
-12.6187659
-9.51837058
-6.98635891
-5.01740848
-3.52005893
-2.37792562
-1.47716792
-0.727288144
-0.0583414525
0.58792556
1.26604924
2.03430139
2.9626338
4.14153707
5.6849548
7.70864087
10.2996045
13.4578236
16.4393155
-26.6989493
-17.2351154
-10.9792136
-7.3248417
-4.90992284
-3.25999457
-2.11102589
-1.26489206
-0.591707244
-0.00636048378
0.554943233
1.14982334
1.84211755
2.7170186
3.90463997
5.60430957
8.08265262
11.8138194
18.1587787
27.7253698
-45.3500457
-21.7256924
-10.519632
-6.0112113
-3.6654607
-2.26807189
-1.38776033
-0.779811391
-0.311088276
0.0921237209
0.47912803
0.892761915
1.38228125
2.02121277
2.94238365
4.39196331
6.8086959
11.4142583
22.7343549
46.4738946
)
;

boundaryField
{
    top
    {
        type            zeroGradient;
    }
    left
    {
        type            zeroGradient;
    }
    right
    {
        type            zeroGradient;
    }
    bottom
    {
        type            zeroGradient;
    }
    back0
    {
        type            empty;
    }
    front1
    {
        type            empty;
    }
}


// ************************************************************************* //
