/*--------------------------------*- C++ -*----------------------------------*\
| =========                 |                                                 |
| \\      /  F ield         | OpenFOAM: The Open Source CFD Toolbox           |
|  \\    /   O peration     | Version:  3.0.0                                 |
|   \\  /    A nd           | Web:      www.OpenFOAM.org                      |
|    \\/     M anipulation  |                                                 |
\*---------------------------------------------------------------------------*/
FoamFile
{
    version     2.0;
    format      ascii;
    class       volScalarField;
    location    "8";
    object      p;
}
// * * * * * * * * * * * * * * * * * * * * * * * * * * * * * * * * * * * * * //

dimensions      [0 2 -2 0 0 0 0];

internalField   nonuniform List<scalar> 
400
(
6.20232e-06
-0.0581912
-0.130482
-0.186323
-0.207284
-0.185039
-0.118961
-0.0139594
0.121281
0.275645
0.436632
0.591264
0.72694
0.832383
0.898743
0.921009
0.899825
0.843655
0.77114
0.712952
0.0576537
-0.00212942
-0.0588262
-0.0973537
-0.10855
-0.0865634
-0.0306492
0.0556422
0.16572
0.290934
0.421412
0.546853
0.657304
0.743976
0.800139
0.822157
0.81078
0.771969
0.715077
0.655334
0.134126
0.0513207
-0.0100501
-0.0456427
-0.0547785
-0.0342151
0.0159837
0.0923646
0.189135
0.298869
0.413132
0.523123
0.620317
0.697141
0.747646
0.768273
0.758953
0.723033
0.661411
0.578635
0.204798
0.0902312
0.0138779
-0.0267387
-0.0378662
-0.0185679
0.0298831
0.103389
0.1961
0.300938
0.410037
0.515221
0.608514
0.682651
0.731574
0.751035
0.739728
0.698697
0.621961
0.507335
0.253495
0.105262
0.0109317
-0.0368524
-0.050261
-0.0304112
0.0200792
0.0961284
0.191394
0.298686
0.410237
0.518027
0.614144
0.691149
0.74242
0.762647
0.749127
0.700841
0.60593
0.457437
0.26863
0.0859292
-0.0271918
-0.0819228
-0.0958589
-0.0720856
-0.0147128
0.0699209
0.174658
0.29186
0.413524
0.531451
0.63745
0.723553
0.782213
0.806757
0.792898
0.737617
0.623654
0.440331
0.240179
0.0218313
-0.109804
-0.169468
-0.180321
-0.147606
-0.0771888
0.0230476
0.144865
0.279945
0.41984
0.55597
0.679646
0.782117
0.854614
0.888759
0.878376
0.818213
0.685423
0.465883
0.157367
-0.0984779
-0.247349
-0.307998
-0.31005
-0.261471
-0.170316
-0.0463444
0.10092
0.262373
0.429074
0.592031
0.741997
0.869308
0.963726
1.01478
1.01392
0.953012
0.802656
0.544794
0.00680804
-0.289052
-0.452576
-0.507821
-0.492723
-0.418993
-0.297535
-0.140354
0.041614
0.238531
0.441119
0.640152
0.825972
0.988031
1.11446
1.19226
1.20974
1.15481
0.989527
0.690547
-0.229323
-0.56813
-0.741508
-0.781394
-0.737172
-0.625925
-0.462288
-0.260896
-0.0340671
0.20791
0.455838
0.700723
0.932913
1.14125
1.31221
1.42983
1.47832
1.43984
1.26461
0.921324
-0.575741
-0.960202
-1.13455
-1.14349
-1.05292
-0.887684
-0.667194
-0.408975
-0.126424
0.170353
0.473035
0.773696
1.06349
1.33127
1.56219
1.737
1.83461
1.82895
1.65306
1.26259
-1.06819
-1.49911
-1.65785
-1.61108
-1.44925
-1.20809
-0.912808
-0.583675
-0.23435
0.126406
0.492427
0.858186
1.21695
1.5588
1.86838
2.12327
2.29603
2.34902
2.18978
1.7514
-1.76129
-2.23297
-2.34475
-2.20257
-1.93336
-1.58731
-1.19578
-0.78075
-0.354403
0.0777457
0.513597
0.951927
1.39007
1.82131
2.23162
2.59652
2.88183
3.03455
2.92449
2.44447
-2.74491
-3.23207
-3.23656
-2.93507
-2.5066
-2.01829
-1.50608
-0.990693
-0.479653
0.0276708
0.535845
1.05045
1.57555
2.11067
2.64642
3.15945
3.61044
3.92849
3.92978
3.43485
-4.17749
-4.6004
-4.37988
-3.81688
-3.15678
-2.48071
-1.82284
-1.1962
-0.598356
-0.0184848
0.557825
1.14585
1.75962
2.40907
3.09504
3.80197
4.49207
5.07953
5.3126
4.88571
-6.34325
-6.48582
-5.81652
-4.83467
-3.84764
-2.93386
-2.11035
-1.37034
-0.69337
-0.0534254
0.577017
1.22567
1.91983
2.68494
3.54033
4.49079
5.51596
6.53202
7.22414
7.08733
-9.75189
-9.07984
-7.56454
-5.94266
-4.51409
-3.31587
-2.31973
-1.4791
-0.744429
-0.0692867
0.589447
1.27359
2.02616
2.89335
3.92416
5.16414
6.63915
8.30658
9.85895
10.5558
-15.5433
-12.6188
-9.51837
-6.98636
-5.01741
-3.52006
-2.37793
-1.47717
-0.727288
-0.0583415
0.587926
1.26605
2.0343
2.96263
4.14154
5.68495
7.70864
10.2996
13.4578
16.4393
-26.6989
-17.2351
-10.9792
-7.32484
-4.90992
-3.25999
-2.11103
-1.26489
-0.591707
-0.00636048
0.554943
1.14982
1.84212
2.71702
3.90464
5.60431
8.08265
11.8138
18.1588
27.7254
-45.35
-21.7257
-10.5196
-6.01121
-3.66546
-2.26807
-1.38776
-0.779811
-0.311088
0.0921237
0.479128
0.892762
1.38228
2.02121
2.94238
4.39196
6.8087
11.4143
22.7344
46.4739
)
;

boundaryField
{
    top
    {
        type            zeroGradient;
    }
    left
    {
        type            zeroGradient;
    }
    right
    {
        type            zeroGradient;
    }
    bottom
    {
        type            zeroGradient;
    }
    back0
    {
        type            empty;
    }
    front1
    {
        type            empty;
    }
}


// ************************************************************************* //
