/*--------------------------------*- C++ -*----------------------------------*\
| =========                 |                                                 |
| \\      /  F ield         | OpenFOAM: The Open Source CFD Toolbox           |
|  \\    /   O peration     | Version:  3.0.1                                 |
|   \\  /    A nd           | Web:      www.OpenFOAM.org                      |
|    \\/     M anipulation  |                                                 |
\*---------------------------------------------------------------------------*/
FoamFile
{
    version     2.0;
    format      ascii;
    class       surfaceScalarField;
    location    "8";
    object      phi;
}
// * * * * * * * * * * * * * * * * * * * * * * * * * * * * * * * * * * * * * //

dimensions      [0 3 -1 0 0 0 0];

internalField   nonuniform List<scalar> 
760
(
1.48341532e-05
-1.48395799e-05
-2.06666685e-05
3.55007982e-05
-0.000112520713
9.18539719e-05
-0.000244614212
0.00013209345
-0.000396820031
0.000152205873
-0.00054970952
0.000152889661
-0.000686466951
0.000136757633
-0.000793771691
0.000107304831
-0.00086207675
6.83049503e-05
-0.000885638008
2.35609925e-05
-0.000862489343
-2.3148925e-05
-0.00079444668
-6.80427357e-05
-0.000687159472
-0.000107287021
-0.000550173496
-0.000136985622
-0.000396907622
-0.000153265558
-0.000244342158
-0.000152565373
-0.00011206845
-0.000132273893
-2.02874131e-05
-9.17813837e-05
1.49801907e-05
-3.52679286e-05
1.49800583e-05
-3.27946247e-05
1.79550715e-05
-0.000177271254
0.000179977525
-0.000430661086
0.000345243827
-0.000762837644
0.000464269917
-0.00113361756
0.000522985636
-0.00150161751
0.000520889511
-0.00182937259
0.000464512783
-0.00208620191
0.000364134378
-0.00224961318
0.000231716488
-0.0023059017
7.98496424e-05
-0.00225037839
-7.86723353e-05
-0.00208745819
-0.000230963215
-0.00183067152
-0.00036407395
-0.00150250458
-0.000465152657
-0.0011338116
-0.00052195838
-0.000762352236
-0.000524024412
-0.000429806087
-0.000464819698
-0.000176504725
-0.000345082527
-3.24526621e-05
-0.000179319945
-1.74729009e-05
-9.02046293e-05
0.000108159667
-0.000352894233
0.000442667263
-0.000760600342
0.000752950069
-0.001267239
0.000970908601
-0.00181761799
0.00107336449
-0.00235581869
0.00105908999
-0.0028311292
0.000939823147
-0.00320177449
0.000734779746
-0.00343696483
0.00046690711
-0.00351787642
0.000160761566
-0.00343806449
-0.000158484091
-0.00320361217
-0.000465415643
-0.00283310474
-0.000734581702
-0.00235730394
-0.000940953793
-0.00181818899
-0.00106107348
-0.00126684702
-0.00107536623
-0.00075960233
-0.000972064018
-0.000351894385
-0.000752790096
-8.97159258e-05
-0.000441498212
-0.000107189116
-0.000142725208
0.000250884766
-0.00052115534
0.000821097478
-0.00107877681
0.00131057172
-0.00174926979
0.00164140176
-0.00246204166
0.00178613638
-0.00314895758
0.00174600572
-0.00374966712
0.00154053241
-0.00421508518
0.00120019763
-0.00450930184
0.000761123854
-0.00461045072
0.000261910783
-0.00451103966
-0.000257894766
-0.00421807526
-0.000758379849
-0.00375308455
-0.00119957254
-0.00315189482
-0.00154214388
-0.0024638072
-0.00174916147
-0.00174963533
-0.00178953824
-0.00107807166
-0.00164362751
-0.000520126949
-0.00131073445
-0.000142136699
-0.000819488162
-0.000249325944
-0.000191108176
0.000441992823
-0.000682218917
0.00131220817
-0.0013873198
0.00201567272
-0.00221710301
0.00247118522
-0.00308417083
0.00265320443
-0.00390865205
0.00257048697
-0.00462240391
0.00225428404
-0.00517146434
0.00174925772
-0.00551708679
0.00110674608
-0.00563594009
0.000380764157
-0.00552002229
-0.0003738122
-0.00517665196
-0.00110174975
-0.00462865259
-0.00174757166
-0.00391458175
-0.00225621483
-0.0030886063
-0.00257513728
-0.00221943937
-0.00265870553
-0.0013877299
-0.00247533712
-0.000681573899
-0.0020168903
-0.000190525735
-0.00131053604
-0.000439851573
-0.000238304802
0.000680297603
-0.000842095454
0.00191599865
-0.00169514004
0.00286871724
-0.00268291745
0.00345896277
-0.00369984118
0.00367012847
-0.00465445385
0.00352509992
-0.00547225681
0.00307208705
-0.00609649782
0.00237349847
-0.00648763916
0.001497887
-0.00662232795
0.000515452675
-0.00649254247
-0.000503597611
-0.0061053329
-0.00148895894
-0.00548329022
-0.00236961388
-0.00466558427
-0.00307392052
-0.00370911749
-0.00353160416
-0.00268907205
-0.00367875132
-0.00169797554
-0.00346643398
-0.000842533804
-0.00287233217
-0.000237931553
-0.00191513815
-0.000677782852
-0.000287377816
0.000967675553
-0.00100782297
0.00263644363
-0.00201201731
0.00387291134
-0.00315754812
0.00460449349
-0.00431950063
0.00483208117
-0.00539549607
0.00460109574
-0.00630668127
0.00398327259
-0.00699609427
0.00306291152
-0.0074258181
0.00192761054
-0.00757414375
0.000663777874
-0.00743359669
-0.000644144976
-0.0070103078
-0.00191224777
-0.00632488089
-0.00305504039
-0.00541459487
-0.00398420606
-0.00433643065
-0.00460976813
-0.00317000723
-0.00484517483
-0.00201911823
-0.00461732332
-0.00101037808
-0.00388107263
-0.000287535795
-0.0026379805
-0.000965318373
-0.000341212234
0.00130888803
-0.00118606884
0.00348130021
-0.00234617492
0.00503301718
-0.00364749864
0.00590581693
-0.00494510466
0.00612968708
-0.00612756526
0.00578355655
-0.00711505486
0.00497076262
-0.0078541829
0.00380203994
-0.00831193726
0.00238536496
-0.00847043703
0.000822277342
-0.00832350487
-0.000791077612
-0.007875555
-0.00236019797
-0.00714295035
-0.00378764499
-0.00615769344
-0.00496946258
-0.00497294289
-0.00579451822
-0.00366927784
-0.00614883964
-0.00235988177
-0.00592671949
-0.00119212034
-0.00504883435
-0.000342356175
-0.00348774489
-0.00130767443
-0.000402662258
0.00171155049
-0.00138288322
0.00446152133
-0.0027031464
0.00635328029
-0.00415277705
0.00735544728
-0.00556708759
0.00754399729
-0.00682952879
0.00704599763
-0.007864876
0.00600611006
-0.00862888982
0.00456605423
-0.00909798386
0.00285445942
-0.00926099455
0.000985288097
-0.00911404261
-0.000938029857
-0.00865885397
-0.00281538709
-0.00790464536
-0.00454185393
-0.00687353034
-0.00600057756
-0.0056091003
-0.00705894791
-0.00418713243
-0.00757080709
-0.00272616135
-0.00738769037
-0.00139412408
-0.00638087169
-0.000405385298
-0.0044764839
-0.00171305983
-0.000475110736
0.00218666125
-0.00160423008
0.00559064096
-0.00308522716
0.00783427756
-0.00466468967
0.00893490973
-0.00616057352
0.00903988081
-0.00745844198
0.00834386571
-0.00849632106
0.007043989
-0.00924694443
0.00531667785
-0.00970204026
0.00330955574
-0.00986075384
0.0011440021
-0.00972275463
-0.00107602898
-0.00928598301
-0.00325215901
-0.00854900051
-0.00527883689
-0.00751809708
-0.0070314813
-0.00621927717
-0.00835776778
-0.0047145578
-0.00907552614
-0.00312030233
-0.00898194548
-0.00162255959
-0.00787861426
-0.000480136608
-0.00561890696
-0.00219319665
-0.000563484011
0.00275014506
-0.00185696113
0.0068841183
-0.00349063215
0.00946794892
-0.00516238862
0.0106066664
-0.00667966479
0.0105571569
-0.00794251186
0.00960671241
-0.00891480754
0.00801628427
-0.00959641006
0.00599828022
-0.010001315
0.00371446092
-0.0101429407
0.00128562832
-0.0100258832
-0.00119308605
-0.00964324018
-0.00363480197
-0.0089791858
-0.00594289154
-0.00801729001
-0.00799337752
-0.00675563277
-0.0096194253
-0.00522944119
-0.0106017177
-0.00353999244
-0.0106713939
-0.00188425637
-0.00953435003
-0.000571636139
-0.00693152708
-0.00276483297
-0.000675948616
0.00342609339
-0.00214982767
0.00835799738
-0.00391097502
0.0112290966
-0.00560625102
0.0123019428
-0.00704802685
0.011998933
-0.00817076049
0.0107294459
-0.00898119887
0.00882672224
-0.00951808201
0.00653516294
-0.00982460492
0.00402098367
-0.00993193735
0.00139296098
-0.00985079017
-0.00127423276
-0.00956873097
-0.00391686076
-0.00905248774
-0.00645913468
-0.00825621148
-0.00878965402
-0.00713822168
-0.0107374155
-0.00568945442
-0.0120504852
-0.00397535315
-0.0123854952
-0.00218751963
-0.0113221833
-0.000688081008
-0.00843096548
-0.00345291402
-0.000826648622
0.00425274181
-0.00249342119
0.0100247698
-0.00432418452
0.0130598599
-0.00592459569
0.0139023543
-0.0071429133
0.013217251
-0.00797782126
0.0115643542
-0.00849943305
0.00934833394
-0.00879640136
0.00683213085
-0.00894570113
0.00417028302
-0.00899764711
0.00144490679
-0.00896948457
-0.00130239509
-0.00884345456
-0.00404289033
-0.00856804062
-0.00673454825
-0.00806387587
-0.00929381867
-0.00723867584
-0.0115626157
-0.00601823946
-0.0132709219
-0.00440132847
-0.0140024063
-0.00254175605
-0.0131817557
-0.000843508748
-0.0101292126
-0.00429642267
-0.00103952312
0.00529226497
-0.00289549018
0.0118807365
-0.00467633812
0.0148407076
-0.00598720149
0.0152132177
-0.00676819873
0.0139982485
-0.00712209988
0.0119182557
-0.00720203258
0.0094282669
-0.00715181579
0.00678191398
-0.00708046874
0.00409893559
-0.00705437528
0.00141881293
-0.00709612716
-0.00126064338
-0.00718439494
-0.00395462236
-0.00725315066
-0.00666579213
-0.00719198958
-0.00935497942
-0.00685341896
-0.0119011862
-0.00607860047
-0.0140457405
-0.0047588905
-0.0153221166
-0.00295227301
-0.0149883733
-0.00106146527
-0.0120200203
-0.00535788779
-0.00135025142
0.00664251664
-0.00334025596
0.0138707409
-0.0048376811
0.0163381325
-0.00555404848
0.0159295848
-0.00561056939
0.0140547695
-0.00525650325
0.0115641899
-0.00473591653
0.0089076806
-0.00423859783
0.00628459554
-0.00389222382
0.00375256152
-0.00376902854
0.00129561732
-0.00389327292
-0.00113639936
-0.00424393243
-0.00360396301
-0.0047511353
-0.00615858911
-0.00528768982
-0.00881842458
-0.00566131377
-0.011527562
-0.00562172829
-0.0140853259
-0.0049105665
-0.0160332785
-0.00339873249
-0.0165002075
-0.00137654986
-0.014042203
-0.00673443754
-0.00179037802
0.00843289496
-0.00371836121
0.0157987242
-0.00450183534
0.0171216064
-0.00418179663
0.0156095457
-0.00317451674
0.0130474893
-0.00189546722
0.0102851404
-0.00065556982
0.00766778349
0.000344295441
0.00528473068
0.000987448314
0.0031094089
0.00121450045
0.00106856514
0.00100600299
-0.000927902176
0.000376740705
-0.00297470105
-0.000618094221
-0.00516375433
-0.00186474342
-0.00757177527
-0.00316256874
-0.0102297364
-0.00419629297
-0.0130516015
-0.00454020582
-0.0156893656
-0.00376394182
-0.0172764716
-0.00181751162
-0.0159886333
-0.00855194915
-0.00230764276
0.0107405379
-0.00363211758
0.0171231993
-0.00297442378
0.0164639127
-0.00106889368
0.0137040155
0.00129962223
0.0106789731
0.00360817651
0.00797658586
0.00556237781
0.00571358217
0.00701811538
0.00382899337
0.00791404677
0.00221347788
0.00822761958
0.000754992573
0.00795212846
-0.000652411062
0.00708964863
-0.00211222144
0.00565786595
-0.0037319719
0.00371317385
-0.00562708329
0.00139571613
-0.00791227864
-0.00100056606
-0.0106553191
-0.00294595421
-0.0137439773
-0.00363940836
-0.0165830174
-0.00232572288
-0.0173023189
-0.0108776721
-0.00251428321
0.013254821
-0.00191886163
0.016527778
0.00123204968
0.0133130016
0.00516960719
0.00976645808
0.00890995228
0.00693862784
0.0120477007
0.0048388371
0.0144621918
0.0032990909
0.0161533071
0.00213787802
0.0171566123
0.00121017291
0.0175035784
0.000408026779
0.0172053082
-0.000354140639
0.016248011
-0.00115492426
0.0145966908
-0.00208065189
0.0122107379
-0.00324113059
0.00908363893
-0.00478517976
0.00532950017
-0.00690118027
0.00135184668
-0.00976632363
-0.00185633288
-0.0133748377
-0.00250263356
-0.0166560182
-0.0133803057
-0.000525870732
0.0137806915
0.0046911653
0.011310742
0.0111379058
0.00686626143
0.0167191969
0.00418516715
0.0210437615
0.0026140634
0.0242217884
0.00166081006
0.0264601189
0.00106076021
0.0279395591
0.000658437618
0.0287868701
0.000362861856
0.0290749922
0.000119904831
0.0288276843
-0.000106832481
0.0280213582
-0.000348598049
0.0265824981
-0.00064179175
0.0243820565
-0.00104068911
0.0212339725
-0.00163709589
0.0169223244
-0.00258953219
0.011326164
-0.00417016322
0.00483124082
-0.00687991443
-0.000460418918
-0.0113643583
-0.0138407246
0.0137806913
0.0250914332
0.0319576945
0.0361428618
0.0387569255
0.0404177358
0.041478496
0.0421369335
0.0424997951
0.0426196998
0.0425128673
0.0421642694
0.0415224778
0.0404817888
0.0388446929
0.0362551607
0.0320849974
0.0252050829
0.0138407246
)
;

boundaryField
{
    top
    {
        type            calculated;
        value           uniform 0;
    }
    left
    {
        type            calculated;
        value           uniform 0;
    }
    right
    {
        type            calculated;
        value           uniform 0;
    }
    bottom
    {
        type            calculated;
        value           uniform 0;
    }
    back0
    {
        type            empty;
        value           nonuniform 0();
    }
    front1
    {
        type            empty;
        value           nonuniform 0();
    }
}


// ************************************************************************* //
