/*--------------------------------*- C++ -*----------------------------------*\
| =========                 |                                                 |
| \\      /  F ield         | OpenFOAM: The Open Source CFD Toolbox           |
|  \\    /   O peration     | Version:  3.0.1                                 |
|   \\  /    A nd           | Web:      www.OpenFOAM.org                      |
|    \\/     M anipulation  |                                                 |
\*---------------------------------------------------------------------------*/
FoamFile
{
    version     2.0;
    format      ascii;
    class       volVectorField;
    location    "8";
    object      U;
}
// * * * * * * * * * * * * * * * * * * * * * * * * * * * * * * * * * * * * * //

dimensions      [0 1 -1 0 0 0 0];

internalField   nonuniform List<vector> 
400
(
(0.000259093872 -0.000255070451 0)
(0.000163261916 0.00010351349 0)
(-0.00114126055 0.000562931681 0)
(-0.00345162497 0.000892682034 0)
(-0.00637456156 0.00105975939 0)
(-0.00950138 0.00107586121 0)
(-0.0124624478 0.000965763925 0)
(-0.014952818 0.000758487167 0)
(-0.0167424709 0.000482987882 0)
(-0.0176781106 0.000166939155 0)
(-0.0176825134 -0.000162991729 0)
(-0.0167540751 -0.000480342795 0)
(-0.0149673986 -0.000757969852 0)
(-0.0124747421 -0.000967395232 0)
(-0.00950714645 -0.00107880217 0)
(-0.00637237342 -0.0010625934 0)
(-0.00344362065 -0.000894005624 0)
(-0.00113223047 -0.000562120938 0)
(0.000168793807 -0.000101409348 0)
(0.000260558444 0.000256261074 0)
(-6.3630899e-05 -0.000192747492 0)
(-0.0015637459 0.00161127262 0)
(-0.00562129441 0.00360997257 0)
(-0.0116623986 0.00506518624 0)
(-0.0188876784 0.00579893488 0)
(-0.0264616779 0.00581606533 0)
(-0.0335808332 0.00520265101 0)
(-0.0395528811 0.00408408524 0)
(-0.0438411268 0.00260080233 0)
(-0.046081711 0.000897206038 0)
(-0.0460899743 -0.000881783024 0)
(-0.0438629537 -0.00259069721 0)
(-0.0395804518 -0.00408265836 0)
(-0.0336043469 -0.00520997063 0)
(-0.0264731048 -0.00582869991 0)
(-0.0188840536 -0.00581112088 0)
(-0.01164729 -0.005071223 0)
(-0.00560339481 -0.00360723352 0)
(-0.00155190279 -0.00160273571 0)
(-6.01291401e-05 0.000198534489 0)
(-0.000508057639 0.0010330378 0)
(-0.00364515026 0.0056623303 0)
(-0.0104977626 0.0102120826 0)
(-0.0199304932 0.0134777922 0)
(-0.0307793308 0.015069855 0)
(-0.0419249899 0.0149606129 0)
(-0.0522861745 0.0133219663 0)
(-0.0609227897 0.010436413 0)
(-0.0671017802 0.00663926841 0)
(-0.0703241037 0.00228747693 0)
(-0.0703359354 -0.00225413509 0)
(-0.0671333772 -0.0066175206 0)
(-0.0609637701 -0.0104336454 0)
(-0.0523232392 -0.0133384711 0)
(-0.0419466832 -0.0149890914 0)
(-0.0307804331 -0.0150978431 0)
(-0.019914379 -0.0134927125 0)
(-0.0104753166 -0.0102076259 0)
(-0.00362888894 -0.00564388829 0)
(-0.000502879121 -0.00101879791 0)
(-0.00090152789 0.00337415251 0)
(-0.00561471356 0.0121027207 0)
(-0.0152160178 0.0199185822 0)
(-0.0278960101 0.0253348691 0)
(-0.0420806353 0.0278175268 0)
(-0.0563930738 0.0273454249 0)
(-0.069539622 0.0242145251 0)
(-0.0804104915 0.018908459 0)
(-0.0881486896 0.0120071534 0)
(-0.0921742179 0.00413333178 0)
(-0.0921927193 -0.00407342806 0)
(-0.0881990057 -0.0119670922 0)
(-0.0804785998 -0.0189011783 0)
(-0.069606927 -0.0242412169 0)
(-0.0564423196 -0.0273944606 0)
(-0.0421017914 -0.0278680869 0)
(-0.0278901606 -0.0253649864 0)
(-0.0151953175 -0.0199157317 0)
(-0.00559611144 -0.0120735483 0)
(-0.000894869882 -0.0033487108 0)
(-0.00124878057 0.00671914497 0)
(-0.00746753452 0.0208067026 0)
(-0.0197752585 0.0325561775 0)
(-0.0356414708 0.0403583196 0)
(-0.053035668 0.0436522784 0)
(-0.0703148033 0.0425094328 0)
(-0.0859995191 0.0374148014 0)
(-0.0988569956 0.0291035749 0)
(-0.107956645 0.0184400453 0)
(-0.112678274 0.00634468269 0)
(-0.112709212 -0.00624106064 0)
(-0.108042228 -0.018367557 0)
(-0.0989773635 -0.029083256 0)
(-0.0861273378 -0.0374502613 0)
(-0.0704227627 -0.042584683 0)
(-0.053104581 -0.0437362425 0)
(-0.0356666388 -0.040416042 0)
(-0.0197684312 -0.0325645922 0)
(-0.0074510567 -0.0207705732 0)
(-0.00124126988 -0.0066812647 0)
(-0.00158017385 0.0110106945 0)
(-0.00929263352 0.0317466215 0)
(-0.0243212544 0.0481289267 0)
(-0.04337439 0.0585360784 0)
(-0.0639230239 0.0625112788 0)
(-0.0840449359 0.0603351379 0)
(-0.102093603 0.0527734094 0)
(-0.116751934 0.0408774791 0)
(-0.127060244 0.0258362162 0)
(-0.132395296 0.00888910782 0)
(-0.132446582 -0.00871105382 0)
(-0.127203921 -0.0257053996 0)
(-0.116959601 -0.040827193 0)
(-0.102324845 -0.0528124382 0)
(-0.0842568022 -0.0604436766 0)
(-0.0640811203 -0.0626456939 0)
(-0.0434628887 -0.0586432836 0)
(-0.0243482631 -0.0481684386 0)
(-0.00928636422 -0.0317151649 0)
(-0.00157322859 -0.0109621117 0)
(-0.00192625624 0.0162550677 0)
(-0.011192899 0.0449648606 0)
(-0.0290279016 0.0666850357 0)
(-0.0513080627 0.0798756087 0)
(-0.0749610842 0.0843338809 0)
(-0.0977822847 0.0806969725 0)
(-0.11798829 0.0701286191 0)
(-0.134227471 0.054074041 0)
(-0.145564312 0.0340861048 0)
(-0.151415614 0.0117325396 0)
(-0.151496512 -0.0114321687 0)
(-0.14579305 -0.0338557572 0)
(-0.134564567 -0.053965264 0)
(-0.118375863 -0.0701597861 0)
(-0.0981555696 -0.080846142 0)
(-0.0752630673 -0.0845426807 0)
(-0.0515043813 -0.0800662937 0)
(-0.0291175768 -0.0667897437 0)
(-0.0112092943 -0.0449617361 0)
(-0.00192231814 -0.0162027067 0)
(-0.00231586438 0.0225188849 0)
(-0.0132686087 0.0605807172 0)
(-0.0340569756 0.0883110897 0)
(-0.0596048719 0.104368566 0)
(-0.0862453037 0.108997339 0)
(-0.111508522 0.103380066 0)
(-0.133533109 0.0892237801 0)
(-0.151009558 0.0684555375 0)
(-0.163100851 0.0430258815 0)
(-0.16932077 0.0148224105 0)
(-0.169440505 -0.0143329533 0)
(-0.163441908 -0.0426373948 0)
(-0.151519881 -0.0682455342 0)
(-0.134134151 -0.089226618 0)
(-0.112108175 -0.103575265 0)
(-0.0867560024 -0.109310718 0)
(-0.0599644067 -0.104690505 0)
(-0.0342470571 -0.088533126 0)
(-0.0133249303 -0.0606460634 0)
(-0.00231859373 -0.0224774354 0)
(-0.00277919433 0.0299257516 0)
(-0.0156192266 0.0787852768 0)
(-0.0395457644 0.113109754 0)
(-0.0683430227 0.131941966 0)
(-0.0976948767 0.136245351 0)
(-0.124920475 0.127998147 0)
(-0.14818564 0.109628254 0)
(-0.166341062 0.0836380223 0)
(-0.178753039 0.0523950454 0)
(-0.185108324 0.0180718678 0)
(-0.185273801 -0.0173093013 0)
(-0.17922754 -0.0517729584 0)
(-0.167060691 -0.0832686489 0)
(-0.149050934 -0.109570379 0)
(-0.125809068 -0.128239195 0)
(-0.0984818549 -0.136696933 0)
(-0.0689278787 -0.132456232 0)
(-0.0398814794 -0.11352171 0)
(-0.0157375869 -0.0789798381 0)
(-0.00279365441 -0.0299204497 0)
(-0.0033555893 0.0386598324 0)
(-0.0183589912 0.0998286295 0)
(-0.0456106426 0.141148999 0)
(-0.0774898357 0.162368225 0)
(-0.108990995 0.165574069 0)
(-0.137340476 0.153875609 0)
(-0.160905741 0.130632503 0)
(-0.178870104 0.0990104332 0)
(-0.190943376 0.0617852175 0)
(-0.197080754 0.0213406269 0)
(-0.197293186 -0.0202106634 0)
(-0.191556666 -0.0608422183 0)
(-0.179812905 -0.098409684 0)
(-0.162062655 -0.130467244 0)
(-0.138561437 -0.154151342 0)
(-0.110110874 -0.166194664 0)
(-0.0783600712 -0.16314486 0)
(-0.0461409157 -0.141843443 0)
(-0.018565752 -0.100236643 0)
(-0.003388407 -0.0387292552 0)
(-0.00410769473 0.0489852991 0)
(-0.0216450047 0.124008524 0)
(-0.0523542027 0.172385469 0)
(-0.0868591249 0.195134291 0)
(-0.119481306 0.196079167 0)
(-0.147583887 0.179902914 0)
(-0.170007081 0.151130529 0)
(-0.186501477 0.113650958 0)
(-0.197291783 0.0705900877 0)
(-0.20270879 0.0244160597 0)
(-0.202959318 -0.0228287308 0)
(-0.198020697 -0.0692386223 0)
(-0.187639336 -0.112739122 0)
(-0.171435194 -0.150796261 0)
(-0.149136087 -0.180184109 0)
(-0.120957506 -0.196885873 0)
(-0.0880572001 -0.196241896 0)
(-0.0531240545 -0.173469175 0)
(-0.0219690685 -0.124737853 0)
(-0.00416716262 -0.049183833 0)
(-0.00514672342 0.0612936589 0)
(-0.0257192239 0.151656875 0)
(-0.0598573353 0.206540867 0)
(-0.0960163544 0.229247359 0)
(-0.128010534 0.226252059 0)
(-0.153752932 0.204366557 0)
(-0.172950777 0.169499915 0)
(-0.186211836 0.126253703 0)
(-0.194456682 0.0779668411 0)
(-0.198488978 0.0269985797 0)
(-0.198753976 -0.0248921034 0)
(-0.195235523 -0.0761392907 0)
(-0.187451778 -0.124956375 0)
(-0.174551715 -0.16892319 0)
(-0.155556649 -0.204598298 0)
(-0.129800734 -0.227232058 0)
(-0.0975421275 -0.230734023 0)
(-0.0608943019 -0.208120366 0)
(-0.0261884391 -0.152833974 0)
(-0.00524278033 -0.0616931021 0)
(-0.00667695514 0.0761991901 0)
(-0.0309618132 0.18310232 0)
(-0.0681131786 0.242881294 0)
(-0.104061123 0.262937314 0)
(-0.132609116 0.253713736 0)
(-0.152911308 0.224767306 0)
(-0.166064262 0.183506301 0)
(-0.17383689 0.135093401 0)
(-0.177984693 0.0828291932 0)
(-0.179830229 0.0286992503 0)
(-0.180068017 -0.0260728372 0)
(-0.178694669 -0.0805072204 0)
(-0.175001627 -0.133363404 0)
(-0.167632214 -0.182612029 0)
(-0.154769956 -0.224864001 0)
(-0.134563331 -0.254804107 0)
(-0.105835097 -0.264801052 0)
(-0.0694045902 -0.245035401 0)
(-0.0315960008 -0.184858165 0)
(-0.0068208445 -0.0768885802 0)
(-0.00906576144 0.094702637 0)
(-0.0379246421 0.218538326 0)
(-0.0767913867 0.279804173 0)
(-0.109143738 0.29320868 0)
(-0.129924732 0.274900174 0)
(-0.140578598 0.237679784 0)
(-0.144175975 0.190296533 0)
(-0.143858214 0.138083665 0)
(-0.142218387 0.0839087301 0)
(-0.141028905 0.0290636848 0)
(-0.141180996 -0.0260145419 0)
(-0.142689441 -0.0811589644 0)
(-0.14468343 -0.135932437 0)
(-0.145383987 -0.189029524 0)
(-0.142149464 -0.237529642 0)
(-0.131741764 -0.275969883 0)
(-0.110959041 -0.295359028 0)
(-0.0782481885 -0.282539179 0)
(-0.0387218178 -0.220978843 0)
(-0.00926852212 -0.0957839712 0)
(-0.0129064947 0.118408538 0)
(-0.0471896957 0.257615167 0)
(-0.0845412809 0.314085573 0)
(-0.107433028 0.315236809 0)
(-0.114222051 0.284803048 0)
(-0.109987084 0.238796069 0)
(-0.100191608 0.186611104 0)
(-0.0892602652 0.133024633 0)
(-0.0803513338 0.079941557 0)
(-0.0754276625 0.0276432368 0)
(-0.0754289758 -0.0243954519 0)
(-0.080389556 -0.0769480796 0)
(-0.0894298969 -0.130558963 0)
(-0.100620784 -0.184972277 0)
(-0.110789494 -0.238285715 0)
(-0.115426937 -0.28565154 0)
(-0.108905904 -0.317458341 0)
(-0.085944154 -0.317272946 0)
(-0.0480970345 -0.260766775 0)
(-0.0131729822 -0.119982477 0)
(-0.0188565017 0.149839412 0)
(-0.0584939865 0.298411261 0)
(-0.0871238252 0.339552564 0)
(-0.0910298033 0.321660366 0)
(-0.075751965 0.27698096 0)
(-0.0511223743 0.223384755 0)
(-0.0247385445 0.169390596 0)
(-0.00161211335 0.118146572 0)
(0.0152214357 0.0700342536 0)
(0.0241045329 0.0241323056 0)
(0.0243023036 -0.0210356832 0)
(0.0157673077 -0.0671084015 0)
(-0.000856607388 -0.115596926 0)
(-0.0239880056 -0.167483968 0)
(-0.0506315571 -0.222453469 0)
(-0.0757440634 -0.277375536 0)
(-0.0915838352 -0.323604382 0)
(-0.088057987 -0.342864163 0)
(-0.0593476792 -0.302137066 0)
(-0.0191649207 -0.151974067 0)
(-0.0264625446 0.193171195 0)
(-0.0677000379 0.335014321 0)
(-0.0729896181 0.344651848 0)
(-0.044114794 0.301756048 0)
(0.00159043155 0.244051747 0)
(0.0502178696 0.187354318 0)
(0.0938180423 0.136864141 0)
(0.128367535 0.092959534 0)
(0.152066823 0.0541905816 0)
(0.164225584 0.018562009 0)
(0.164617883 -0.0160354746 0)
(0.15319834 -0.0517325289 0)
(0.130098914 -0.090676446 0)
(0.0959095875 -0.134939062 0)
(0.0523327116 -0.18607979 0)
(0.00333419668 -0.243831941 0)
(-0.0430904936 -0.30301398 0)
(-0.0728279119 -0.347547205 0)
(-0.0681295084 -0.338913014 0)
(-0.0267083256 -0.195840586 0)
(-0.0289527587 0.251331316 0)
(-0.0581036135 0.350741899 0)
(-0.0140170741 0.309539066 0)
(0.0632657978 0.242400595 0)
(0.142946961 0.180310318 0)
(0.212723818 0.129919439 0)
(0.268472773 0.0905925652 0)
(0.309449322 0.0595774679 0)
(0.336245825 0.0340345987 0)
(0.349654594 0.0115487775 0)
(0.350147699 -0.00995156257 0)
(0.337700441 -0.0324236458 0)
(0.311782819 -0.0579641664 0)
(0.271519282 -0.0890461145 0)
(0.216198152 -0.128613176 0)
(0.146424034 -0.179576154 0)
(0.0662122523 -0.242735895 0)
(-0.0121382473 -0.311417368 0)
(-0.0574832336 -0.354042305 0)
(-0.028831247 -0.254177677 0)
(0.0132195538 0.289507496 0)
(0.029681681 0.302854562 0)
(0.15417969 0.214068812 0)
(0.282833703 0.14234522 0)
(0.382969605 0.0939486631 0)
(0.457130862 0.0619624459 0)
(0.510502494 0.040550943 0)
(0.547090514 0.0255474116 0)
(0.569959922 0.0142061179 0)
(0.581116173 0.0047381264 0)
(0.581523402 -0.00414301021 0)
(0.571184993 -0.0135724699 0)
(0.549136898 -0.024841271 0)
(0.513349857 -0.0397538569 0)
(0.460686705 -0.0611006455 0)
(0.387005993 -0.0931595564 0)
(0.286924354 -0.141969626 0)
(0.15762611 -0.214616954 0)
(0.0318291845 -0.304532301 0)
(0.0142600292 -0.291324499 0)
(0.304245118 0.147454746 0)
(0.405563367 0.127829557 0)
(0.569531335 0.0747835022 0)
(0.686121673 0.041838577 0)
(0.753522533 0.0238429721 0)
(0.794598214 0.0139302358 0)
(0.82088769 0.00829802037 0)
(0.837586481 0.00488893126 0)
(0.84752229 0.00260052923 0)
(0.852223 0.000835247958 0)
(0.852350807 -0.000772307259 0)
(0.847917608 -0.00252075526 0)
(0.838285538 -0.00477209352 0)
(0.821949452 -0.00811771705 0)
(0.796091301 -0.0136558019 0)
(0.755502851 -0.0234583764 0)
(0.688596477 -0.0413908867 0)
(0.572194811 -0.0744403297 0)
(0.4075242 -0.12786856 0)
(0.305169545 -0.147795834 0)
)
;

boundaryField
{
    top
    {
        type            fixedValue;
        value           uniform (1 0 0);
    }
    left
    {
        type            fixedValue;
        value           uniform (0 0 0);
    }
    right
    {
        type            fixedValue;
        value           uniform (0 0 0);
    }
    bottom
    {
        type            fixedValue;
        value           uniform (0 0 0);
    }
    back0
    {
        type            empty;
    }
    front1
    {
        type            empty;
    }
}


// ************************************************************************* //
