/*--------------------------------*- C++ -*----------------------------------*\
| =========                 |                                                 |
| \\      /  F ield         | OpenFOAM: The Open Source CFD Toolbox           |
|  \\    /   O peration     | Version:  3.0.1                                 |
|   \\  /    A nd           | Web:      www.OpenFOAM.org                      |
|    \\/     M anipulation  |                                                 |
\*---------------------------------------------------------------------------*/
FoamFile
{
    version     2.0;
    format      ascii;
    class       volVectorField;
    location    "8";
    object      W;
}
// * * * * * * * * * * * * * * * * * * * * * * * * * * * * * * * * * * * * * //

dimensions      [0 1 -1 0 0 0 0];

internalField   nonuniform List<vector> 
400
(
(8.0986363e-08 -5.37431562e-08 0)
(2.61631042e-07 -2.65828998e-07 0)
(2.69823113e-07 -3.15809248e-07 0)
(-8.82703818e-08 -5.84001917e-08 0)
(-5.88061344e-07 4.14152796e-07 0)
(-7.91679655e-07 7.68469901e-07 0)
(-4.00329693e-07 6.70259393e-07 0)
(4.347451e-07 6.81057184e-08 0)
(1.15808872e-06 -7.09118048e-07 0)
(1.19702894e-06 -1.14218374e-06 0)
(4.08039057e-07 -8.8201193e-07 0)
(-7.65746823e-07 -2.03227822e-08 0)
(-1.56729539e-06 9.36723513e-07 0)
(-1.44206408e-06 1.38628833e-06 0)
(-4.18843981e-07 1.0208716e-06 0)
(9.25091892e-07 2.60250212e-08 0)
(1.87037431e-06 -1.04518661e-06 0)
(2.00219142e-06 -1.62353129e-06 0)
(1.4701204e-06 -1.45387727e-06 0)
(4.79116041e-07 -5.74295035e-07 0)
(-7.75346775e-08 3.23994551e-08 0)
(1.19036453e-07 -4.67102535e-07 0)
(6.09572879e-07 -8.22267632e-07 0)
(6.6332201e-07 -5.40508343e-07 0)
(6.02210826e-08 4.05810777e-07 0)
(-8.38359765e-07 1.44057267e-06 0)
(-1.31191398e-06 1.73297136e-06 0)
(-8.65363034e-07 8.49199229e-07 0)
(3.29944374e-07 -8.18071388e-07 0)
(1.49191766e-06 -2.21771786e-06 0)
(1.76829247e-06 -2.33894257e-06 0)
(8.68939785e-07 -9.50229027e-07 0)
(-6.91008642e-07 1.1718463e-06 0)
(-1.92593489e-06 2.7147289e-06 0)
(-2.03919126e-06 2.68633916e-06 0)
(-9.17525475e-07 1.06282735e-06 0)
(8.55202284e-07 -1.21425457e-06 0)
(2.38550516e-06 -2.87487929e-06 0)
(2.92735602e-06 -3.10038464e-06 0)
(1.32595422e-06 -1.631903e-06 0)
(-3.67593673e-07 3.52985066e-07 0)
(-4.92401422e-07 -1.62381977e-08 0)
(3.20150173e-07 -7.41533575e-07 0)
(1.102615e-06 -1.14626475e-06 0)
(1.12944583e-06 -7.31027762e-07 0)
(1.87617925e-07 4.38941031e-07 0)
(-1.15337366e-06 1.62694343e-06 0)
(-1.90118049e-06 1.90999706e-06 0)
(-1.38233682e-06 8.94756533e-07 0)
(1.97064222e-07 -8.97417833e-07 0)
(1.82508955e-06 -2.31373431e-06 0)
(2.37132375e-06 -2.35323884e-06 0)
(1.39014051e-06 -8.88441225e-07 0)
(-5.47129743e-07 1.20786584e-06 0)
(-2.21743306e-06 2.63456298e-06 0)
(-2.52948861e-06 2.52801776e-06 0)
(-1.20948274e-06 1.00366269e-06 0)
(9.87305572e-07 -9.95075199e-07 0)
(2.6384805e-06 -2.36390316e-06 0)
(1.43534895e-06 -2.0153956e-06 0)
(-5.5572182e-07 4.8244878e-07 0)
(-1.12875453e-06 6.47567438e-07 0)
(-5.17885283e-07 7.86979561e-09 0)
(6.82939845e-07 -1.00062996e-06 0)
(1.64108675e-06 -1.60663743e-06 0)
(1.51293444e-06 -1.146695e-06 0)
(1.63111667e-07 2.99616483e-07 0)
(-1.58129336e-06 1.83765881e-06 0)
(-2.45996557e-06 2.35021585e-06 0)
(-1.71290569e-06 1.33020487e-06 0)
(2.95969287e-07 -6.80099566e-07 0)
(2.26704792e-06 -2.40258192e-06 0)
(2.85181993e-06 -2.68736668e-06 0)
(1.60171275e-06 -1.30960694e-06 0)
(-6.94064949e-07 8.73371505e-07 0)
(-2.51093334e-06 2.50553746e-06 0)
(-2.61471799e-06 2.62294859e-06 0)
(-9.86110478e-07 1.23419546e-06 0)
(1.02103434e-06 -7.4181536e-07 0)
(8.70719791e-07 -1.68641591e-06 0)
(-4.03057335e-07 1.73206746e-07 0)
(-1.18654155e-06 9.6386565e-07 0)
(-1.33873434e-06 1.02262615e-06 0)
(-4.9896469e-07 9.0569011e-08 0)
(1.0007001e-06 -1.32151292e-06 0)
(2.1106561e-06 -2.14426946e-06 0)
(1.83845502e-06 -1.56906782e-06 0)
(1.40030765e-07 2.47154751e-07 0)
(-1.91386599e-06 2.1767747e-06 0)
(-2.85860395e-06 2.87025351e-06 0)
(-1.91733576e-06 1.73411139e-06 0)
(3.79308437e-07 -5.90842539e-07 0)
(2.51721953e-06 -2.62536482e-06 0)
(3.04715453e-06 -3.05334521e-06 0)
(1.61096313e-06 -1.61771917e-06 0)
(-7.86642143e-07 7.16548333e-07 0)
(-2.48388684e-06 2.42698155e-06 0)
(-2.42938058e-06 2.46680312e-06 0)
(-1.05591576e-06 9.84527192e-07 0)
(-7.7938996e-08 -6.50848815e-07 0)
(1.12079255e-07 -4.57756682e-07 0)
(-3.52590691e-07 5.41503788e-07 0)
(-1.39516787e-06 1.51545458e-06 0)
(-1.66027218e-06 1.46683127e-06 0)
(-5.88308679e-07 1.67978481e-07 0)
(1.27165145e-06 -1.62757354e-06 0)
(2.55717582e-06 -2.62033384e-06 0)
(2.16114646e-06 -1.92185055e-06 0)
(1.55417349e-07 2.04887239e-07 0)
(-2.16232196e-06 2.42347118e-06 0)
(-3.16570836e-06 3.22098813e-06 0)
(-2.08550463e-06 1.98675591e-06 0)
(4.00082132e-07 -5.2295114e-07 0)
(2.61755331e-06 -2.68680581e-06 0)
(3.07721478e-06 -3.13498018e-06 0)
(1.53175682e-06 -1.68523468e-06 0)
(-8.6208246e-07 5.64232891e-07 0)
(-2.45777157e-06 2.06079374e-06 0)
(-2.41406481e-06 1.96607526e-06 0)
(-8.9449283e-07 5.98686895e-07 0)
(7.01034266e-07 -9.55904106e-07 0)
(9.99515666e-07 -4.57783409e-07 0)
(-4.06107314e-07 9.35006923e-07 0)
(-1.85927702e-06 2.03183587e-06 0)
(-2.09785692e-06 1.86759116e-06 0)
(-6.77619141e-07 2.57167517e-07 0)
(1.54410586e-06 -1.86552233e-06 0)
(2.96464904e-06 -3.01632515e-06 0)
(2.43155386e-06 -2.24432139e-06 0)
(1.59313608e-07 9.81797946e-08 0)
(-2.35087605e-06 2.5200774e-06 0)
(-3.36191652e-06 3.40749637e-06 0)
(-2.15593566e-06 2.15948265e-06 0)
(4.3318422e-07 -3.86726231e-07 0)
(2.60941357e-06 -2.55236785e-06 0)
(2.90632407e-06 -3.0003872e-06 0)
(1.24631479e-06 -1.64169863e-06 0)
(-1.04310295e-06 3.99560634e-07 0)
(-2.28255921e-06 1.72336197e-06 0)
(-1.129199e-06 1.38948604e-06 0)
(9.37202196e-07 -8.62458335e-07 0)
(1.96646452e-06 -1.34217147e-06 0)
(1.10474363e-06 -4.79689232e-07 0)
(-7.49507864e-07 1.16318051e-06 0)
(-2.37120332e-06 2.45092066e-06 0)
(-2.46252896e-06 2.23985111e-06 0)
(-7.16783185e-07 3.7715103e-07 0)
(1.78128244e-06 -2.02656863e-06 0)
(3.26929548e-06 -3.32181544e-06 0)
(2.60306766e-06 -2.51637347e-06 0)
(1.46458141e-07 -4.21985627e-08 0)
(-2.44267623e-06 2.49968575e-06 0)
(-3.39207114e-06 3.44689198e-06 0)
(-2.09429294e-06 2.23242458e-06 0)
(4.6069821e-07 -2.48205624e-07 0)
(2.42926055e-06 -2.31251273e-06 0)
(2.50382901e-06 -2.69448183e-06 0)
(9.06963953e-07 -1.38668456e-06 0)
(-8.21317653e-07 4.8329493e-07 0)
(-6.86280113e-07 1.29429594e-06 0)
(5.76268283e-07 -1.0699038e-07 0)
(1.75343478e-06 -1.38464202e-06 0)
(2.10005216e-06 -1.77105612e-06 0)
(1.05247901e-06 -6.96982678e-07 0)
(-1.02799855e-06 1.3075201e-06 0)
(-2.75198402e-06 2.81856596e-06 0)
(-2.72230203e-06 2.57874474e-06 0)
(-7.35541789e-07 5.16485951e-07 0)
(1.93943637e-06 -2.09578152e-06 0)
(3.43692348e-06 -3.49614633e-06 0)
(2.66534804e-06 -2.69062166e-06 0)
(1.30213482e-07 -1.83227128e-07 0)
(-2.41856694e-06 2.36701376e-06 0)
(-3.25794382e-06 3.31382944e-06 0)
(-1.93564482e-06 2.16299681e-06 0)
(4.47418276e-07 -1.38616645e-07 0)
(2.14002398e-06 -1.94996746e-06 0)
(2.14889066e-06 -2.15190169e-06 0)
(9.84493016e-07 -9.19648853e-07 0)
(1.13952401e-07 4.41856726e-07 0)
(-2.19537693e-07 8.64334296e-07 0)
(3.24445181e-07 -4.15985583e-07 0)
(1.77823038e-06 -1.94469742e-06 0)
(2.32660668e-06 -2.27024145e-06 0)
(1.14382019e-06 -8.93194486e-07 0)
(-1.19134227e-06 1.42799116e-06 0)
(-3.01852802e-06 3.10132565e-06 0)
(-2.89351588e-06 2.84214771e-06 0)
(-7.45355547e-07 6.62893773e-07 0)
(2.00469041e-06 -2.05673543e-06 0)
(3.45637458e-06 -3.51133905e-06 0)
(2.61493303e-06 -2.74342698e-06 0)
(1.08618037e-07 -3.12436279e-07 0)
(-2.29289929e-06 2.12762103e-06 0)
(-2.98839655e-06 3.01989401e-06 0)
(-1.6874188e-06 1.98211037e-06 0)
(4.78990849e-07 -1.53854145e-08 0)
(1.95433206e-06 -1.48261014e-06 0)
(1.99458428e-06 -1.58680317e-06 0)
(7.52156408e-07 -5.64756907e-07 0)
(-9.48453202e-07 1.36654605e-06 0)
(-1.46414831e-06 9.66815961e-07 0)
(2.23963816e-07 -7.5489151e-07 0)
(2.12274766e-06 -2.36728252e-06 0)
(2.6774335e-06 -2.6131428e-06 0)
(1.24293664e-06 -1.04226646e-06 0)
(-1.3079134e-06 1.47116391e-06 0)
(-3.17302125e-06 3.24746001e-06 0)
(-2.95958557e-06 3.00011123e-06 0)
(-7.39947219e-07 8.04534968e-07 0)
(1.9741762e-06 -1.91183411e-06 0)
(3.32545575e-06 -3.36616016e-06 0)
(2.4522387e-06 -2.66945979e-06 0)
(7.77373589e-08 -4.12909978e-07 0)
(-2.07598116e-06 1.82025527e-06 0)
(-2.58060313e-06 2.62422639e-06 0)
(-1.31159713e-06 1.73067548e-06 0)
(5.84716984e-07 5.12731142e-08 0)
(1.67257914e-06 -1.16957239e-06 0)
(8.56624562e-07 -1.07626506e-06 0)
(-1.10674577e-06 9.80299505e-07 0)
(-2.41008865e-06 1.78647543e-06 0)
(-1.5695093e-06 1.03521201e-06 0)
(4.98972123e-07 -8.18828749e-07 0)
(2.47991141e-06 -2.57427288e-06 0)
(2.89360857e-06 -2.84369373e-06 0)
(1.2711403e-06 -1.19390037e-06 0)
(-1.36304248e-06 1.41004278e-06 0)
(-3.18646086e-06 3.23900745e-06 0)
(-2.90728877e-06 3.03476095e-06 0)
(-7.17440539e-07 9.21790737e-07 0)
(1.85221696e-06 -1.68128651e-06 0)
(3.057715e-06 -3.07662811e-06 0)
(2.19590165e-06 -2.47058819e-06 0)
(5.24381934e-08 -4.61726019e-07 0)
(-1.76425561e-06 1.48761294e-06 0)
(-2.06736135e-06 2.1482796e-06 0)
(-9.51361848e-07 1.34556858e-06 0)
(3.93299544e-07 -7.89705773e-08 0)
(4.34148637e-07 -8.4250325e-07 0)
(-5.58187527e-07 -9.94577615e-08 0)
(-1.82477958e-06 1.40621968e-06 0)
(-2.37458799e-06 2.16580078e-06 0)
(-1.46336991e-06 1.32872476e-06 0)
(6.60298569e-07 -7.52767994e-07 0)
(2.62389283e-06 -2.66959831e-06 0)
(2.94574754e-06 -2.98499106e-06 0)
(1.26110268e-06 -1.33501818e-06 0)
(-1.33237581e-06 1.25551544e-06 0)
(-3.05482213e-06 3.07566816e-06 0)
(-2.74184931e-06 2.93626837e-06 0)
(-6.76284006e-07 9.95805473e-07 0)
(1.65762672e-06 -1.39167979e-06 0)
(2.68817901e-06 -2.67002264e-06 0)
(1.88202773e-06 -2.16370704e-06 0)
(3.8979335e-08 -4.62641041e-07 0)
(-1.43109026e-06 1.12304237e-06 0)
(-1.65322926e-06 1.57584146e-06 0)
(-9.00036989e-07 8.66877387e-07 0)
(-1.73421333e-07 -1.40852725e-07 0)
(3.46226948e-07 -1.15845439e-06 0)
(-6.47469578e-08 4.00119632e-08 0)
(-1.62176338e-06 1.81154761e-06 0)
(-2.4197144e-06 2.55224314e-06 0)
(-1.51994627e-06 1.55451643e-06 0)
(6.61261879e-07 -6.65447777e-07 0)
(2.6058617e-06 -2.64597969e-06 0)
(2.87798243e-06 -3.00402827e-06 0)
(1.22607436e-06 -1.4391367e-06 0)
(-1.22342658e-06 1.02946179e-06 0)
(-2.79463893e-06 2.77740992e-06 0)
(-2.47569218e-06 2.71543188e-06 0)
(-6.11421368e-07 1.01792469e-06 0)
(1.41881644e-06 -1.07455949e-06 0)
(2.25611495e-06 -2.1935919e-06 0)
(1.52354212e-06 -1.79809735e-06 0)
(-2.23430704e-08 -4.48474916e-07 0)
(-1.21358187e-06 7.53230579e-07 0)
(-1.39972053e-06 1.06568959e-06 0)
(-5.58355233e-07 4.85568396e-07 0)
(1.00367301e-06 -1.45784872e-06 0)
(1.69022956e-06 -1.35844616e-06 0)
(1.65511304e-07 2.27998703e-07 0)
(-1.74539532e-06 1.99485483e-06 0)
(-2.56856136e-06 2.68800013e-06 0)
(-1.57846237e-06 1.66237892e-06 0)
(6.06968064e-07 -5.36516771e-07 0)
(2.46794093e-06 -2.48708404e-06 0)
(2.70227842e-06 -2.88577745e-06 0)
(1.16450725e-06 -1.47603512e-06 0)
(-1.05233585e-06 7.77445979e-07 0)
(-2.43336455e-06 2.38894025e-06 0)
(-2.13275148e-06 2.39548024e-06 0)
(-5.26501161e-07 9.76319578e-07 0)
(1.15377447e-06 -7.76425954e-07 0)
(1.77779407e-06 -1.71106939e-06 0)
(1.11107496e-06 -1.41664604e-06 0)
(-1.36501202e-07 -3.82275034e-07 0)
(-9.59292744e-07 5.33106315e-07 0)
(-5.29602233e-07 6.48826142e-07 0)
(9.8679525e-07 -7.71375502e-07 0)
(2.27403063e-06 -1.77514039e-06 0)
(1.74178116e-06 -1.40872565e-06 0)
(5.3151962e-09 1.29763802e-07 0)
(-1.86621344e-06 1.88996624e-06 0)
(-2.56534089e-06 2.60695236e-06 0)
(-1.54349607e-06 1.6727403e-06 0)
(5.28836931e-07 -3.68360343e-07 0)
(2.23747854e-06 -2.18639926e-06 0)
(2.44079425e-06 -2.60260609e-06 0)
(1.07226978e-06 -1.40615159e-06 0)
(-8.5516387e-07 5.36420442e-07 0)
(-2.02217339e-06 1.93385926e-06 0)
(-1.75302951e-06 1.98053802e-06 0)
(-4.34039523e-07 8.53655413e-07 0)
(8.75151819e-07 -5.29004927e-07 0)
(1.29086728e-06 -1.24326196e-06 0)
(7.42818783e-07 -9.9477894e-07 0)
(-7.94715963e-08 -2.00953798e-07 0)
(-2.04077568e-07 3.63692482e-07 0)
(3.44956698e-07 4.36189529e-07 0)
(1.36569884e-06 -8.99368791e-07 0)
(2.04755458e-06 -1.89855605e-06 0)
(1.5283855e-06 -1.61751607e-06 0)
(-9.41983563e-08 -1.26678774e-07 0)
(-1.78793475e-06 1.59747544e-06 0)
(-2.36086678e-06 2.36776629e-06 0)
(-1.38955401e-06 1.6385344e-06 0)
(4.63081264e-07 -1.12042857e-07 0)
(1.93672271e-06 -1.72683936e-06 0)
(2.08107989e-06 -2.1830434e-06 0)
(9.07123068e-07 -1.28298478e-06 0)
(-6.82770536e-07 2.6647455e-07 0)
(-1.59970571e-06 1.41201693e-06 0)
(-1.35256788e-06 1.50606301e-06 0)
(-3.2370975e-07 6.95787719e-07 0)
(6.32066952e-07 -2.96384992e-07 0)
(9.07234739e-07 -7.75256565e-07 0)
(5.63765058e-07 -5.68262258e-07 0)
(1.33542538e-07 -4.26301008e-08 0)
(-4.47777352e-07 1.33558082e-06 0)
(-3.16079595e-07 6.08389576e-07 0)
(9.68481093e-07 -9.94048138e-07 0)
(1.77561139e-06 -2.05312122e-06 0)
(1.36916819e-06 -1.81401781e-06 0)
(-4.16576551e-08 -3.86242265e-07 0)
(-1.48055843e-06 1.31455755e-06 0)
(-1.948728e-06 2.18386912e-06 0)
(-1.14554069e-06 1.68112603e-06 0)
(3.44024759e-07 1.85303188e-07 0)
(1.4977379e-06 -1.29628637e-06 0)
(1.59267717e-06 -1.84228563e-06 0)
(6.86091958e-07 -1.22899693e-06 0)
(-4.95310748e-07 -9.9052419e-09 0)
(-1.13788534e-06 9.53408741e-07 0)
(-9.25623906e-07 1.12172773e-06 0)
(-1.87831367e-07 5.95764921e-07 0)
(4.61795442e-07 -7.76957693e-08 0)
(6.32260806e-07 -4.04614701e-07 0)
(2.65714082e-07 -2.46623402e-07 0)
(-8.55077022e-07 1.39619472e-06 0)
(-1.57539396e-06 1.59212231e-06 0)
(-6.20301641e-07 3.5590926e-07 0)
(7.5734016e-07 -1.22379967e-06 0)
(1.59536318e-06 -2.10701724e-06 0)
(1.33591565e-06 -1.69298275e-06 0)
(1.88798593e-07 -2.20928818e-07 0)
(-1.0442406e-06 1.37138372e-06 0)
(-1.54487851e-06 2.07986758e-06 0)
(-1.03494914e-06 1.50770105e-06 0)
(6.70572153e-08 1.02652329e-07 0)
(9.84762843e-07 -1.19468615e-06 0)
(1.1507606e-06 -1.6138965e-06 0)
(5.77259207e-07 -1.0439336e-06 0)
(-2.25255875e-07 -1.75005271e-08 0)
(-6.78645445e-07 7.46238608e-07 0)
(-5.59351727e-07 8.6012191e-07 0)
(-9.55733916e-08 4.63574423e-07 0)
(2.82810414e-07 -8.43673464e-09 0)
(1.82621622e-07 -1.77149943e-07 0)
(-5.54764334e-07 5.4828089e-07 0)
(-1.37071865e-06 8.46282176e-07 0)
(-1.27304585e-06 4.54808417e-07 0)
(-4.37232728e-07 -2.59286325e-07 0)
(6.44939746e-07 -8.41768087e-07 0)
(1.27971864e-06 -9.12275425e-07 0)
(1.08364039e-06 -4.16148077e-07 0)
(2.23603003e-07 3.30975419e-07 0)
(-7.14425158e-07 8.54776297e-07 0)
(-1.13402052e-06 8.41702952e-07 0)
(-8.25733798e-07 3.39009377e-07 0)
(-7.35142502e-08 -3.00442815e-07 0)
(5.87572835e-07 -6.75445673e-07 0)
(7.63507335e-07 -6.0450769e-07 0)
(4.48668946e-07 -2.14902146e-07 0)
(-3.49902385e-08 1.90688403e-07 0)
(-3.2381603e-07 3.67745481e-07 0)
(-2.83748341e-07 2.82896545e-07 0)
(-6.05996253e-08 8.46304818e-08 0)
(2.61318106e-08 -4.4055045e-08 0)
)
;

boundaryField
{
    top
    {
        type            calculated;
        value           uniform (-5.55111512e-15 0 0);
    }
    left
    {
        type            calculated;
        value           uniform (0 0 0);
    }
    right
    {
        type            calculated;
        value           uniform (0 0 0);
    }
    bottom
    {
        type            calculated;
        value           uniform (0 0 0);
    }
    back0
    {
        type            empty;
    }
    front1
    {
        type            empty;
    }
}


// ************************************************************************* //
