/*--------------------------------*- C++ -*----------------------------------*\
| =========                 |                                                 |
| \\      /  F ield         | OpenFOAM: The Open Source CFD Toolbox           |
|  \\    /   O peration     | Version:  3.0.1                                 |
|   \\  /    A nd           | Web:      www.OpenFOAM.org                      |
|    \\/     M anipulation  |                                                 |
\*---------------------------------------------------------------------------*/
FoamFile
{
    version     2.0;
    format      ascii;
    class       volScalarField;
    location    "5";
    object      magVorticity;
}
// * * * * * * * * * * * * * * * * * * * * * * * * * * * * * * * * * * * * * //

dimensions      [0 0 -1 0 0 0 0];

internalField   nonuniform List<scalar> 
400
(
0.00347019026
0.0221856025
0.0755177057
0.156108752
0.254454295
0.358690664
0.457259116
0.540229328
0.599920637
0.631138543
0.631252099
0.600220446
0.54060786
0.45758247
0.358850527
0.254412334
0.155913982
0.075282351
0.0220149969
0.0035528179
0.0218560396
0.0761113227
0.128104304
0.186678445
0.251556596
0.318273349
0.380917534
0.433681278
0.47172433
0.491634095
0.491655202
0.471784286
0.433771006
0.381024583
0.318383884
0.251655369
0.186746444
0.128115723
0.0760345079
0.0216762868
0.075332168
0.132299978
0.174101855
0.21091389
0.24675784
0.281835135
0.31434594
0.341749158
0.361586287
0.371991046
0.371977489
0.36156544
0.341772004
0.314471368
0.282098442
0.247141164
0.211330865
0.17440747
0.13233038
0.0749741339
0.162175675
0.203668003
0.225096397
0.236099222
0.242668955
0.247868148
0.252763815
0.257268368
0.260797397
0.262735912
0.262728541
0.260811016
0.257394703
0.253108174
0.248492103
0.243536225
0.237046153
0.225845543
0.203891902
0.161606366
0.28204478
0.295149417
0.286568478
0.265744786
0.239935018
0.214143863
0.191481247
0.173666883
0.16152664
0.15539974
0.155416246
0.161627211
0.173982977
0.192164918
0.215285019
0.241479704
0.267443789
0.287984152
0.295735804
0.281301896
0.434347865
0.408435881
0.360420942
0.30048941
0.237244745
0.17729612
0.12531113
0.084332822
0.0561929729
0.0419007039
0.0419279421
0.0563468481
0.084801655
0.126320423
0.178995517
0.239588796
0.30314998
0.362772638
0.409645633
0.433583278
0.619556197
0.544059362
0.446464636
0.338793239
0.231436419
0.132583239
0.048165741
0.017848905
0.063008948
0.085927993
0.085943733
0.062951071
0.017437481
0.049284287
0.13468479
0.234547305
0.34254455
0.450033504
0.546256019
0.619098182
0.839525403
0.702185268
0.543057072
0.37721207
0.217452906
0.073646291
0.047271788
0.140843072
0.204444001
0.236661238
0.23682516
0.204780902
0.140930985
0.046546601
0.075693991
0.221035483
0.38201089
0.548083432
0.705839826
0.839948462
1.09750747
0.882743805
0.647103532
0.410205586
0.188018711
0.00785144
0.169874931
0.29372663
0.377236284
0.419443617
0.419921446
0.378445898
0.295043959
0.170420415
0.00673292
0.191378347
0.415708872
0.653702523
0.88842082
1.09970106
1.3981695
1.08514942
0.753480315
0.429411701
0.132938127
0.12278155
0.330437358
0.486868696
0.591310621
0.643954156
0.644973293
0.594058639
0.490463798
0.333573969
0.12400401
0.13482133
0.434805425
0.761507939
1.0934567
1.40339403
1.74784944
1.30760401
0.853724593
0.422202156
0.0378816
0.28536183
0.5420692
0.73198709
0.857215931
0.920105955
0.921938919
0.862315345
0.73918765
0.54955926
0.290944
0.03632073
0.425987555
0.862574303
1.3190803
1.75776051
2.15519787
1.54564015
0.93349459
0.369131898
0.11752993
0.51424725
0.82055674
1.04197661
1.18562214
1.25737505
1.2602917
1.193903
1.05421609
0.83444904
0.52675
0.125299
0.368895902
0.941805857
1.56054197
2.17180751
2.63220551
1.78887521
0.96769044
0.239598237
0.36255812
0.83381769
1.18448709
1.43030731
1.58632446
1.66362103
1.66779452
1.59836648
1.44873156
1.20668325
0.85599262
0.37996019
0.231856196
0.972967731
1.806802
2.65772486
3.19470513
2.01329418
0.91098454
0.01532095
0.73915962
1.27527866
1.65468772
1.90964429
2.0665334
2.1432584
2.14861691
2.08223007
1.93442289
1.68608634
1.30920821
0.7696578
0.03498489
0.909197481
2.03256242
3.23114956
3.85814455
2.16246378
0.679540789
0.473964608
1.30613509
1.87648168
2.25208866
2.48915648
2.62821219
2.69470447
2.70074616
2.6462026
2.5185102
2.29122734
1.92197171
1.35170328
0.509966117
0.665013648
2.17916331
3.90645655
4.61806725
2.10223492
0.116974406
1.25889839
2.14088094
2.67795317
2.99247834
3.16984143
3.26432424
3.30723184
3.31287566
3.28149139
3.19904377
3.03386914
2.73013775
2.19912047
1.31304037
0.083510735
2.1092257
4.6764648
5.38281765
1.51090279
1.06365025
2.54895703
3.33100656
3.71033799
3.87606102
3.93734994
3.95421915
3.95776117
3.96139934
3.96574104
3.95845959
3.90910631
3.75722588
3.39102286
2.61511351
1.11818774
1.49842173
5.44419927
5.62391104
0.391739693
3.35510611
4.56177246
4.9386033
4.96630744
4.87026421
4.75280945
4.65921792
4.6087675
4.60877943
4.65999257
4.75660452
4.88089278
4.98884033
4.97794517
4.61856063
3.41760432
0.427190018
5.67251625
2.59164171
5.39105665
7.44057753
7.42976025
6.90958344
6.35272114
5.88829951
5.54481985
5.32085752
5.20917537
5.20513705
5.30915428
5.52684105
5.86689545
6.33298849
6.89947798
7.43841623
7.46895734
5.41714979
2.61856007
14.0725103
16.3742618
13.6227994
10.8198515
8.91416205
7.63815885
6.77651131
6.21020501
5.86571467
5.70033656
5.69481788
5.84897184
6.1817453
6.73584406
7.58562658
8.85226241
10.7546112
13.5665675
16.3400212
14.0490603
)
;

boundaryField
{
    top
    {
        type            calculated;
        value           nonuniform List<scalar> 
20
(
25.0773522
24.5041775
18.0786561
13.0645382
10.1381821
8.37152115
7.25490571
6.55351583
6.13964518
5.94480816
5.93952757
6.12329347
6.52454816
7.21085913
8.30975469
10.0572368
12.9659604
17.9769842
24.432587
25.0365743
)
;
    }
    left
    {
        type            calculated;
        value           nonuniform List<scalar> 
20
(
0.0121579563
3.987598e-05
0.0496996547
0.142372919
0.275552098
0.447202563
0.657559719
0.909284809
1.20742718
1.55967803
1.97732304
2.47743887
3.08715812
3.85040115
4.83424912
6.12913698
7.82781016
9.65643139
8.24832088
10.9271635
)
;
    }
    right
    {
        type            calculated;
        value           nonuniform List<scalar> 
20
(
0.0122547412
0.00030716685
0.0490990356
0.141332012
0.274033968
0.445294968
0.65556213
0.907811043
1.20751627
1.56290525
1.98589688
2.49426072
3.11580055
3.89488028
4.89826315
6.21431621
7.93028676
9.75742349
8.31297203
10.8938709
)
;
    }
    bottom
    {
        type            calculated;
        value           nonuniform List<scalar> 
20
(
0.0118787898
0.00165105276
0.0535428843
0.143033571
0.256814313
0.37911523
0.495324229
0.593285159
0.663783644
0.700664848
0.700827732
0.664213013
0.593825115
0.495781155
0.379333913
0.256743174
0.142749917
0.0532154659
0.00143220113
0.011970873
)
;
    }
    back0
    {
        type            empty;
    }
    front1
    {
        type            empty;
    }
}


// ************************************************************************* //
