/*--------------------------------*- C++ -*----------------------------------*\
| =========                 |                                                 |
| \\      /  F ield         | OpenFOAM: The Open Source CFD Toolbox           |
|  \\    /   O peration     | Version:  3.0.1                                 |
|   \\  /    A nd           | Web:      www.OpenFOAM.org                      |
|    \\/     M anipulation  |                                                 |
\*---------------------------------------------------------------------------*/
FoamFile
{
    version     2.0;
    format      ascii;
    class       volScalarField;
    location    "5";
    object      p;
}
// * * * * * * * * * * * * * * * * * * * * * * * * * * * * * * * * * * * * * //

dimensions      [0 2 -2 0 0 0 0];

internalField   nonuniform List<scalar> 
400
(
1.07739745e-05
-0.0581832219
-0.130473166
-0.186313886
-0.207274745
-0.185030307
-0.118952255
-0.0139511591
0.12128995
0.275654147
0.436642206
0.591273362
0.726949422
0.83239102
0.898750274
0.921016939
0.899833974
0.843664425
0.771149855
0.712962596
0.0576615114
-0.0021211603
-0.0588176103
-0.0973447388
-0.108540832
-0.0865542719
-0.0306404503
0.0556505198
0.165728457
0.290942259
0.421421078
0.546862853
0.657313558
0.74398523
0.800147898
0.822164868
0.810787605
0.771977308
0.715086347
0.655344671
0.134134755
0.0513290551
-0.0100417374
-0.0456340968
-0.0547693996
-0.0342056328
0.0159930984
0.0923734277
0.189142974
0.298876447
0.413140412
0.523131716
0.620326992
0.697151292
0.747655475
0.768282085
0.758960725
0.723040967
0.661419268
0.578644795
0.204807374
0.090239738
0.0138861452
-0.0267305044
-0.0378575567
-0.0185585984
0.0298927684
0.103398997
0.196108623
0.30094575
0.410044226
0.515229526
0.608523503
0.68266072
0.731583733
0.751044935
0.739736383
0.698704946
0.621968602
0.507343376
0.253503918
0.105271347
0.0109401873
-0.036844298
-0.0502528785
-0.0304025077
0.0200885949
0.0961383215
0.19140355
0.298694981
0.410244657
0.518034261
0.614151593
0.691158373
0.742429482
0.762657191
0.749136088
0.700849783
0.605937704
0.457444522
0.26863952
0.085938495
-0.0271827403
-0.0819143815
-0.0958509896
-0.0720776251
-0.0147042073
0.0699304518
0.174667989
0.29187032
0.413533341
0.531459235
0.637457258
0.723560475
0.782222391
0.806766495
0.792907895
0.737626859
0.623662936
0.440339286
0.240187465
0.0218405753
-0.109794643
-0.169459367
-0.180312547
-0.147598226
-0.0771810146
0.0230562353
0.144874583
0.279955189
0.419849918
0.555978992
0.679654142
0.782124756
0.854622031
0.888767529
0.878386247
0.818223082
0.685432193
0.465891707
0.157375317
-0.0984688918
-0.247339895
-0.307988069
-0.310041167
-0.261462307
-0.170308712
-0.0463367697
0.100928997
0.262382773
0.429084548
0.592040746
0.742006345
0.869316145
0.963733485
1.01479246
1.01392644
0.953021892
0.802665777
0.544803371
0.00681616383
-0.289043638
-0.452566451
-0.507810748
-0.492713249
-0.418983703
-0.297526394
-0.140346757
0.0416215527
0.238539752
0.441128603
0.640162326
0.825982355
0.988040269
1.11446624
1.19226687
1.20974785
1.15481823
0.989536947
0.690556466
-0.229314385
-0.568121965
-0.741499554
-0.781384567
-0.737162449
-0.62591536
-0.462279085
-0.260887513
-0.0340596393
0.207917352
0.455846478
0.70073302
0.932922827
1.14125541
1.31221706
1.42984142
1.47832451
1.43984701
1.26462376
0.921333888
-0.575731565
-0.960193434
-1.13454593
-1.14347738
-1.05291341
-0.887674031
-0.667184152
-0.408965309
-0.126416235
0.1703609
0.473042234
0.773704183
1.06349574
1.33128416
1.56220462
1.73700594
1.83461322
1.82895496
1.65306792
1.26260046
-1.06817573
-1.49910254
-1.65784458
-1.61106923
-1.44924638
-1.20808289
-0.912797591
-0.583665262
-0.234340847
0.126414029
0.492434101
0.858193405
1.21695454
1.55880679
1.86838673
2.12327845
2.29604385
2.34903061
2.18978665
1.75140486
-1.76128514
-2.23295955
-2.34473731
-2.20255892
-1.9333529
-1.58729731
-1.19577105
-0.780740261
-0.354392992
0.0777551239
0.513604825
0.951934709
1.39007372
1.82131974
2.23162651
2.5965343
2.88184196
3.03456121
2.92450254
2.44447791
-2.74489731
-3.23205862
-3.23655375
-2.93506036
-2.5065889
-2.01828055
-1.50607607
-0.990683889
-0.479643037
0.0276809318
0.535854669
1.05046091
1.5755563
2.11067295
2.6464332
3.15945477
3.6104503
3.92849743
3.92978467
3.43485963
-4.17747979
-4.6003875
-4.37986733
-3.81686575
-3.1567737
-2.48069973
-1.82282779
-1.19618809
-0.598346918
-0.018474891
0.55783498
1.14586273
1.75962766
2.40907545
3.09504941
3.80197862
4.49208106
5.07953707
5.31260435
4.88571753
-6.34324261
-6.485809
-5.81650991
-4.8346607
-3.84763197
-2.93385349
-2.11033849
-1.37032941
-0.693361426
-0.0534164155
0.5770268
1.22568305
1.91984085
2.68494581
3.54033936
4.49079398
5.51596756
6.53203215
7.22414889
7.08733684
-9.75188639
-9.07983496
-7.56453559
-5.94264949
-4.51407806
-3.31585567
-2.31972213
-1.47908732
-0.744420858
-0.0692784697
0.589455982
1.27359464
2.02616587
2.89336309
3.92417251
5.16414471
6.63916242
8.30659251
9.8589599
10.5557727
-15.5433342
-12.6187577
-9.51836234
-6.98635017
-5.01739909
-3.52004921
-2.37791613
-1.47715907
-0.72727991
-0.058333423
0.587933899
1.26605816
2.03431077
2.96264324
4.1415462
5.68496354
7.70864939
10.2996131
13.4578324
16.4393244
-26.6989399
-17.2351067
-10.9792054
-7.3248335
-4.90991421
-3.25998536
-2.11101635
-1.26488264
-0.591698289
-0.00635203077
0.554951472
1.14983176
1.84212637
2.71702776
3.9046492
5.60431864
8.08266144
11.8138281
18.1587874
27.7253786
-45.3500358
-21.725683
-10.5196233
-6.01120318
-3.66545264
-2.2680634
-1.3877512
-0.77980183
-0.311078743
0.0921328222
0.4791366
0.892770187
1.3822896
2.02122145
2.94239267
4.39197247
6.80870498
11.4142672
22.7343637
46.4739034
)
;

boundaryField
{
    top
    {
        type            zeroGradient;
    }
    left
    {
        type            zeroGradient;
    }
    right
    {
        type            zeroGradient;
    }
    bottom
    {
        type            zeroGradient;
    }
    back0
    {
        type            empty;
    }
    front1
    {
        type            empty;
    }
}


// ************************************************************************* //
