/*--------------------------------*- C++ -*----------------------------------*\
| =========                 |                                                 |
| \\      /  F ield         | OpenFOAM: The Open Source CFD Toolbox           |
|  \\    /   O peration     | Version:  3.0.1                                 |
|   \\  /    A nd           | Web:      www.OpenFOAM.org                      |
|    \\/     M anipulation  |                                                 |
\*---------------------------------------------------------------------------*/
FoamFile
{
    version     2.0;
    format      ascii;
    class       surfaceScalarField;
    location    "5";
    object      phi;
}
// * * * * * * * * * * * * * * * * * * * * * * * * * * * * * * * * * * * * * //

dimensions      [0 3 -1 0 0 0 0];

internalField   nonuniform List<scalar> 
760
(
1.48321226e-05
-1.48415656e-05
-2.0667715e-05
3.5499868e-05
-0.000112521259
9.1853635e-05
-0.000244614416
0.000132093238
-0.000396820027
0.000152205602
-0.000549709489
0.000152889334
-0.000686467054
0.00013675739
-0.000793771972
0.000107304828
-0.000862077095
6.8305219e-05
-0.00088563822
2.35613853e-05
-0.000862489282
-2.31486584e-05
-0.000794446374
-6.80427863e-05
-0.000687159113
-0.000107287386
-0.000550173318
-0.000136986096
-0.000396907751
-0.000153265852
-0.000244342535
-0.0001525653
-0.000112068882
-0.000132273472
-2.02877192e-05
-9.17808217e-05
1.49800741e-05
-3.5267469e-05
1.49802153e-05
-3.27956056e-05
1.7954037e-05
-0.00017727234
0.000179976541
-0.000430661992
0.000345243287
-0.000762838282
0.000464269636
-0.00113361789
0.000522985398
-0.00150161759
0.00052088919
-0.0018293726
0.000464512412
-0.00208620203
0.000364134109
-0.00224961349
0.000231716473
-0.0023059021
7.98498959e-05
-0.0022503787
-7.8671971e-05
-0.00208745823
-0.00023096298
-0.00183067131
-0.000364074011
-0.00150250426
-0.00046515299
-0.00113381139
-0.000521958789
-0.000762352264
-0.000524024655
-0.000429806361
-0.000464819649
-0.000176505126
-0.000345082237
-3.24530779e-05
-0.000179319546
-1.74725693e-05
-9.02049306e-05
0.000108159035
-0.000352894874
0.000442666409
-0.000760601132
0.000752949456
-0.00126723979
0.000970908287
-0.00181761861
0.00107336435
-0.002355819
0.00105908982
-0.00283112923
0.000939822825
-0.00320177442
0.000734779316
-0.00343696489
0.000466906755
-0.00351787672
0.000160761475
-0.00343806497
-0.000158483872
-0.0032036126
-0.000465415258
-0.0028331049
-0.000734581402
-0.00235730377
-0.000940953774
-0.00181818862
-0.00106107375
-0.00126684671
-0.00107536663
-0.0007596023
-0.000972064318
-0.000351894683
-0.00075279015
-8.9716419e-05
-0.000441497964
-0.000107188707
-0.000142725249
0.00025088441
-0.000521155606
0.000821096759
-0.0010787773
0.00131057104
-0.00174927048
0.00164140134
-0.0024620424
0.00178613625
-0.00314895814
0.00174600573
-0.00374966735
0.00154053231
-0.00421508511
0.0012001973
-0.00450930169
0.000761123338
-0.00461045075
0.000261910325
-0.00451104
-0.000257894918
-0.00421807581
-0.000758379618
-0.00375308503
-0.00119957208
-0.00315189498
-0.00154214349
-0.00246380698
-0.00174916139
-0.00174963493
-0.0017895385
-0.00107807139
-0.00164362794
-0.000520127017
-0.00131073478
-0.000142137053
-0.000819488164
-0.000249325632
-0.000191108204
0.000441992723
-0.000682218977
0.00131220765
-0.00138731997
0.00201567201
-0.0022171034
0.00247118462
-0.00308417146
0.00265320414
-0.00390865276
0.00257048698
-0.00462240444
0.00225428417
-0.0051714645
0.00174925769
-0.00551708663
0.00110674573
-0.00563593986
0.000380763592
-0.00552002229
-0.000373812712
-0.00517665231
-0.00110174993
-0.00462865317
-0.00174757142
-0.00391458224
-0.00225621435
-0.00308860644
-0.00257513687
-0.00221943915
-0.00265870544
-0.00138772954
-0.00247533737
-0.000681573689
-0.00201689068
-0.000190525787
-0.00131053627
-0.000439851513
-0.000238304973
0.000680297694
-0.000842095516
0.0019159984
-0.00169514002
0.00286871665
-0.0026829175
0.00345896207
-0.0036998415
0.00367012792
-0.00465445446
0.00352509971
-0.00547225752
0.00307208718
-0.00609649833
0.0023734987
-0.00648763926
0.00149788704
-0.00662232771
0.000515452352
-0.00649254218
-0.000503598196
-0.00610533286
-0.00148895948
-0.00548329057
-0.00236961408
-0.00466558485
-0.0030739203
-0.00370911796
-0.00353160369
-0.00268907217
-0.00367875092
-0.00169797531
-0.00346643388
-0.000842533441
-0.00287233237
-0.000237931305
-0.00191513847
-0.00067778306
-0.000287378132
0.000967675684
-0.00100782318
0.00263644362
-0.00201201731
0.00387291104
-0.00315754798
0.00460449291
-0.00431950058
0.00483208047
-0.00539549634
0.0046010952
-0.00630668188
0.00398327244
-0.00699609499
0.00306291174
-0.00742581858
0.00192761086
-0.0075741438
0.000663777978
-0.00743359638
-0.000644145269
-0.00701030745
-0.00191224836
-0.00632488083
-0.00305504095
-0.00541459522
-0.00398420628
-0.0043364312
-0.00460976793
-0.00317000766
-0.0048451744
-0.00201911828
-0.00461732295
-0.0010103778
-0.00388107254
-0.000287535419
-0.00263798073
-0.000965318705
-0.000341212545
0.00130888803
-0.00118606919
0.00348130029
-0.00234617511
0.00503301717
-0.00364749856
0.00590581666
-0.00494510442
0.00612968651
-0.00612756514
0.00578355584
-0.00711505509
0.00497076209
-0.0078541835
0.00380203983
-0.00831193797
0.00238536524
-0.00847043749
0.000822277737
-0.00832350487
-0.000791077453
-0.00787555465
-0.00236019822
-0.00714294998
-0.00378764555
-0.00615769338
-0.00496946313
-0.00497294321
-0.00579451845
-0.00366927833
-0.00614883947
-0.00235988209
-0.00592671911
-0.00119212031
-0.00504883404
-0.000342355909
-0.00348774488
-0.00130767468
-0.000402662366
0.00171155027
-0.00138288354
0.00446152132
-0.00270314677
0.00635328044
-0.00415277723
0.00735544736
-0.00556708745
0.00754399707
-0.00682952847
0.00704599707
-0.00786487581
0.00600610935
-0.00862889002
0.0045660537
-0.00909798446
0.00285445933
-0.00926099524
0.000985288416
-0.00911404303
-0.000938029421
-0.00865885393
-0.00281538689
-0.00790464499
-0.00454185414
-0.00687352997
-0.00600057808
-0.00560910023
-0.00705894841
-0.00418713271
-0.00757080731
-0.00272616175
-0.00738769024
-0.00139412432
-0.00638087139
-0.000405385292
-0.00447648369
-0.00171305985
-0.00047511055
0.0021866609
-0.00160423018
0.00559064074
-0.00308522754
0.00783427761
-0.00466469011
0.00893490995
-0.00616057371
0.00903988096
-0.00745844179
0.00834386554
-0.00849632067
0.00704398845
-0.0092469442
0.00531667714
-0.00970204045
0.00330955522
-0.00986075441
0.00114400202
-0.00972275529
-0.00107602865
-0.00928598339
-0.00325215856
-0.00854900045
-0.00527883666
-0.00751809671
-0.00703148147
-0.00621927683
-0.00835776823
-0.00471455774
-0.00907552658
-0.00312030258
-0.00898194568
-0.00162255994
-0.00787861417
-0.000480136841
-0.00561890671
-0.00219319646
-0.00056348363
0.00275014479
-0.00185696095
0.00688411793
-0.00349063232
0.00946794872
-0.00516238909
0.0106066665
-0.00667966526
0.0105571572
-0.00794251203
0.00960671263
-0.00891480731
0.00801628415
-0.00959640964
0.00599827971
-0.0100013147
0.00371446023
-0.0101429409
0.00128562781
-0.0100258838
-0.00119308613
-0.00964324079
-0.00363480165
-0.00897918614
-0.0059428911
-0.00801728992
-0.00799337729
-0.00675563242
-0.00961942543
-0.00522944089
-0.0106017181
-0.00353999241
-0.0106713943
-0.00188425661
-0.00953435019
-0.000571636442
-0.00693152696
-0.00276483273
-0.000675948279
0.00342609336
-0.00214982731
0.00835799705
-0.00391097488
0.0112290961
-0.00560625125
0.0123019426
-0.00704802736
0.0119989331
-0.00817076098
0.0107294463
-0.00898119902
0.00882672252
-0.00951808176
0.00653516287
-0.00982460448
0.0040209832
-0.00993193708
0.00139296033
-0.00985079031
-0.00127423324
-0.00956873146
-0.00391686084
-0.00905248828
-0.0064591344
-0.00825621176
-0.00878965362
-0.00713822159
-0.0107374153
-0.00568945412
-0.0120504853
-0.00397535292
-0.0123854955
-0.00218751964
-0.0113221836
-0.000688081191
-0.00843096556
-0.00345291389
-0.000826648553
0.00425274205
-0.0024934209
0.0100247697
-0.00432418418
0.0130598595
-0.00592459555
0.0139023538
-0.00714291355
0.0132172507
-0.00797782178
0.0115643543
-0.00849943353
0.00934833431
-0.00879640149
0.00683213117
-0.00894570087
0.004170283
-0.00899764668
0.00144490639
-0.00896948431
-0.00130239568
-0.00884345468
-0.00404289078
-0.00856804104
-0.00673454834
-0.00806387634
-0.00929381843
-0.00723867607
-0.0115626154
-0.00601823937
-0.0132709217
-0.00440132823
-0.0140024064
-0.00254175587
-0.0131817559
-0.000843508724
-0.0101292128
-0.0042964227
-0.00103952336
0.00529226531
-0.00289549015
0.0118807367
-0.00467633781
0.0148407075
-0.00598720111
0.0152132172
-0.00676819859
0.013998248
-0.00712210013
0.0119182555
-0.00720203309
0.00942826701
-0.00715181624
0.00678191435
-0.00708046886
0.00409893593
-0.00705437503
0.00141881297
-0.00709612676
-0.00126064371
-0.0071843947
-0.00395462288
-0.00725315076
-0.00666579254
-0.00719198995
-0.00935497951
-0.00685341934
-0.0119011861
-0.00607860065
-0.0140457402
-0.00475889042
-0.0153221164
-0.00295227281
-0.0149883734
-0.0010614651
-0.0120200205
-0.00535788793
-0.00135025181
0.00664251685
-0.0033402562
0.0138707412
-0.00483768103
0.0163381326
-0.00555404811
0.0159295846
-0.00561056899
0.014054769
-0.00525650311
0.0115641894
-0.00473591676
0.00890768033
-0.00423859831
0.00628459564
-0.00389222424
0.00375256188
-0.00376902865
0.00129561766
-0.0038932727
-0.00113639929
-0.00424393208
-0.00360396327
-0.0047511351
-0.00615858954
-0.0052876899
-0.00881842492
-0.00566131407
-0.0115275621
-0.00562172859
-0.0140853258
-0.00491056661
-0.0160332783
-0.0033987324
-0.0165002074
-0.00137654968
-0.0140422031
-0.00673443768
-0.0017903783
0.0084328949
-0.00371836155
0.0157987244
-0.00450183554
0.0171216067
-0.00418179653
0.0156095459
-0.00317451637
0.0130474892
-0.00189546684
0.01028514
-0.000655569686
0.00766778302
0.000344295226
0.00528473043
0.000987447886
0.00310940898
0.00121450009
0.00106856546
0.00100600289
-0.00092790186
0.000376740891
-0.00297470096
-0.000618093932
-0.00516375451
-0.00186474325
-0.00757177561
-0.00316256881
-0.0102297367
-0.0041962932
-0.0130516015
-0.00454020603
-0.0156893655
-0.00376394188
-0.0172764715
-0.00181751154
-0.0159886333
-0.0085519492
-0.00230764275
0.0107405376
-0.0036321178
0.0171231992
-0.00297442409
0.0164639129
-0.00106889387
0.0137040158
0.00129962233
0.0106789733
0.00360817685
0.00797658579
0.00556237816
0.00571358185
0.00701811549
0.00382899298
0.00791404658
0.00221347763
0.00822761921
0.000754992603
0.00795212815
-0.000652410821
0.00708964855
-0.00211222118
0.0056578661
-0.0037319718
0.00371317407
-0.0056270834
0.00139571626
-0.00791227887
-0.00100056611
-0.0106553193
-0.00294595437
-0.0137439773
-0.0036394085
-0.0165830174
-0.00232572292
-0.0173023188
-0.010877672
-0.00251428294
0.0132548207
-0.00191886159
0.0165277777
0.00123204947
0.0133130016
0.00516960689
0.00976645827
0.00890995211
0.00693862817
0.0120477008
0.00483883736
0.0144621921
0.00329909092
0.0161533074
0.00213787778
0.0171566124
0.00121017256
0.0175035782
0.000408026529
0.0172053079
-0.000354140658
0.0162480107
-0.00115492407
0.0145966907
-0.00208065166
0.012210738
-0.00324113046
0.00908363909
-0.0047851798
0.00532950026
-0.00690118042
0.00135184665
-0.00976632378
-0.00185633299
-0.0133748378
-0.00250263365
-0.0166560181
-0.0133803056
-0.000525870369
0.0137806913
0.00469116558
0.0113107417
0.0111379058
0.00686626117
0.0167191967
0.00418516711
0.0210437612
0.00261406362
0.0242217882
0.00166081039
0.0264601189
0.00106076045
0.0279395593
0.000658437612
0.0287868704
0.000362861618
0.0290749923
0.000119904515
0.0288276842
-0.000106832685
0.028021358
-0.000348598039
0.0265824979
-0.000641791567
0.0243820565
-0.00104068889
0.0212339726
-0.00163709577
0.0169223245
-0.00258953222
0.0113261641
-0.00417016333
0.0048312408
-0.00687991453
-0.000460418983
-0.0113643584
-0.0138407246
0.0137806916
0.0250914335
0.0319576948
0.0361428619
0.0387569253
0.0404177355
0.0414784958
0.0421369335
0.0424997953
0.0426197001
0.0425128675
0.0421642694
0.0415224777
0.0404817887
0.0388446929
0.0362551607
0.0320849975
0.025205083
0.0138407246
)
;

boundaryField
{
    top
    {
        type            calculated;
        value           uniform 0;
    }
    left
    {
        type            calculated;
        value           uniform 0;
    }
    right
    {
        type            calculated;
        value           uniform 0;
    }
    bottom
    {
        type            calculated;
        value           uniform 0;
    }
    back0
    {
        type            empty;
        value           nonuniform 0();
    }
    front1
    {
        type            empty;
        value           nonuniform 0();
    }
}


// ************************************************************************* //
