/*--------------------------------*- C++ -*----------------------------------*\
| =========                 |                                                 |
| \\      /  F ield         | OpenFOAM: The Open Source CFD Toolbox           |
|  \\    /   O peration     | Version:  3.0.1                                 |
|   \\  /    A nd           | Web:      www.OpenFOAM.org                      |
|    \\/     M anipulation  |                                                 |
\*---------------------------------------------------------------------------*/
FoamFile
{
    version     2.0;
    format      ascii;
    class       volVectorField;
    location    "5";
    object      U;
}
// * * * * * * * * * * * * * * * * * * * * * * * * * * * * * * * * * * * * * //

dimensions      [0 1 -1 0 0 0 0];

internalField   nonuniform List<vector> 
400
(
(0.000259072209 -0.000255091686 0)
(0.000163228368 0.000103501544 0)
(-0.0011412776 0.000562927062 0)
(-0.00345163184 0.000892679577 0)
(-0.00637456311 0.00105975684 0)
(-0.00950137947 0.0010758584 0)
(-0.0124624485 0.000965761984 0)
(-0.0149528219 0.000758487345 0)
(-0.0167424773 0.000482990329 0)
(-0.0176781162 0.000166942502 0)
(-0.0176825148 -0.000162989633 0)
(-0.0167540712 -0.000480343475 0)
(-0.0149673918 -0.000757973118 0)
(-0.0124747367 -0.000967399204 0)
(-0.00950714613 -0.00107880442 0)
(-0.00637237869 -0.00106259245 0)
(-0.00344362885 -0.000894001826 0)
(-0.00113223762 -0.000562116194 0)
(0.000168789572 -0.000101405712 0)
(0.000260557701 0.000256262207 0)
(-6.36433254e-05 -0.000192780436 0)
(-0.00156376987 0.00161125025 0)
(-0.00562131494 0.00360996231 0)
(-0.0116624136 0.00506518076 0)
(-0.0188876876 0.00579892959 0)
(-0.0264616818 0.00581605881 0)
(-0.0335808342 0.00520264494 0)
(-0.0395528826 0.00408408272 0)
(-0.0438411312 0.00260080511 0)
(-0.0460817181 0.000897212684 0)
(-0.0460899811 -0.000881776691 0)
(-0.0438629569 -0.00259069552 0)
(-0.0395804499 -0.00408266283 0)
(-0.0336043416 -0.00520997882 0)
(-0.0264730998 -0.0058287069 0)
(-0.0188840521 -0.00581112234 0)
(-0.0116472931 -0.00507121801 0)
(-0.00560340137 -0.00360722478 0)
(-0.00155191086 -0.00160272715 0)
(-6.01324059e-05 0.000198539406 0)
(-0.000508061937 0.00103301998 0)
(-0.00364516116 0.00566231127 0)
(-0.0104977775 0.0102120705 0)
(-0.0199305091 0.0134777858 0)
(-0.0307793447 0.0150698509 0)
(-0.041924999 0.0149606079 0)
(-0.052286178 0.0133219596 0)
(-0.0609227895 0.0104364062 0)
(-0.0671017803 0.0066392648 0)
(-0.0703241075 0.00228747846 0)
(-0.0703359432 -0.00225412948 0)
(-0.0671333859 -0.00661751462 0)
(-0.0609637757 -0.0104336431 0)
(-0.0523232391 -0.0133384741 0)
(-0.0419466781 -0.0149890979 0)
(-0.0307804267 -0.0150978492 0)
(-0.0199143757 -0.0134927149 0)
(-0.0104753191 -0.0102076237 0)
(-0.00362889703 -0.00564388202 0)
(-0.000502883238 -0.00101879073 0)
(-0.000901528879 0.00337414318 0)
(-0.00561471712 0.0121027052 0)
(-0.0152160259 0.0199185691 0)
(-0.0278960222 0.0253348613 0)
(-0.0420806495 0.0278175237 0)
(-0.0563930866 0.0273454231 0)
(-0.0695396299 0.0242145209 0)
(-0.0804104932 0.0189084514 0)
(-0.0881486876 0.0120071448 0)
(-0.092174217 0.00413332636 0)
(-0.0921927231 -0.00407342747 0)
(-0.0881990145 -0.0119670863 0)
(-0.0804786098 -0.018901171 0)
(-0.0696069332 -0.0242412129 0)
(-0.0564423191 -0.0273944625 0)
(-0.0421017855 -0.0278680933 0)
(-0.0278901541 -0.0253649935 0)
(-0.0151953155 -0.0199157354 0)
(-0.00559611587 -0.0120735458 0)
(-0.000894873045 -0.00334870347 0)
(-0.00124878109 0.0067191408 0)
(-0.00746753556 0.0208066906 0)
(-0.0197752611 0.0325561637 0)
(-0.0356414767 0.0403583092 0)
(-0.0530356784 0.0436522738 0)
(-0.0703148166 0.0425094326 0)
(-0.0859995312 0.0374148015 0)
(-0.0988570024 0.0291035712 0)
(-0.107956645 0.018440037 0)
(-0.112678271 0.00634467279 0)
(-0.11270921 -0.00624106704 0)
(-0.108042231 -0.0183675565 0)
(-0.0989773726 -0.0290832494 0)
(-0.086127348 -0.037450253 0)
(-0.0704227688 -0.0425846784 0)
(-0.0531045802 -0.0437362443 0)
(-0.0356666331 -0.0404160486 0)
(-0.0197684257 -0.0325645989 0)
(-0.00745105528 -0.0207705752 0)
(-0.00124127059 -0.00668126078 0)
(-0.00158017544 0.0110106946 0)
(-0.00929263592 0.031746614 0)
(-0.0243212551 0.048128914 0)
(-0.0433743907 0.0585360655 0)
(-0.0639230279 0.0625112702 0)
(-0.0840449452 0.0603351357 0)
(-0.102093616 0.0527734116 0)
(-0.116751946 0.0408774809 0)
(-0.12706025 0.0258362132 0)
(-0.132395295 0.00888909919 0)
(-0.132446577 -0.00871106441 0)
(-0.127203918 -0.0257054066 0)
(-0.116959604 -0.0408271926 0)
(-0.102324854 -0.0528124315 0)
(-0.0842568123 -0.0604436683 0)
(-0.0640811261 -0.0626456893 0)
(-0.0434628876 -0.0586432852 0)
(-0.0243482573 -0.0481684442 0)
(-0.00928635813 -0.0317151703 0)
(-0.00157322671 -0.0109621131 0)
(-0.00192625895 0.0162550701 0)
(-0.0111929043 0.0449648581 0)
(-0.0290279038 0.066685027 0)
(-0.0513080615 0.0798755961 0)
(-0.0749610827 0.0843338685 0)
(-0.0977822872 0.080696965 0)
(-0.117988299 0.0701286186 0)
(-0.134227483 0.0540740451 0)
(-0.145564324 0.0340861081 0)
(-0.151415619 0.0117325373 0)
(-0.15149651 -0.0114321772 0)
(-0.145793044 -0.033855768 0)
(-0.134564563 -0.0539652713 0)
(-0.118375866 -0.0701597861 0)
(-0.0981555783 -0.0808461356 0)
(-0.0752630767 -0.0845426728 0)
(-0.051504386 -0.0800662893 0)
(-0.0291175746 -0.0667897449 0)
(-0.0112092875 -0.0449617415 0)
(-0.001922315 -0.0162027121 0)
(-0.00231586691 0.0225188862 0)
(-0.0132686152 0.060580718 0)
(-0.0340569807 0.0883110866 0)
(-0.0596048731 0.104368558 0)
(-0.0862453009 0.108997327 0)
(-0.111508519 0.103380054 0)
(-0.13353311 0.0892237733 0)
(-0.151009566 0.0684555382 0)
(-0.163100863 0.0430258871 0)
(-0.169320781 0.0148224151 0)
(-0.169440509 -0.0143329547 0)
(-0.163441905 -0.0426374029 0)
(-0.151519874 -0.0682455449 0)
(-0.134134147 -0.0892266254 0)
(-0.112108178 -0.103575266 0)
(-0.0867560103 -0.109310712 0)
(-0.0599644147 -0.104690498 0)
(-0.0342470599 -0.0885331223 0)
(-0.0133249272 -0.0606460658 0)
(-0.00231859133 -0.0224774413 0)
(-0.00277919502 0.0299257493 0)
(-0.0156192307 0.0787852773 0)
(-0.039545771 0.113109755 0)
(-0.0683430281 0.131941964 0)
(-0.0976948773 0.136245343 0)
(-0.12492047 0.127998135 0)
(-0.148185636 0.109628242 0)
(-0.166341062 0.0836380159 0)
(-0.178753047 0.052395047 0)
(-0.185108337 0.0180718745 0)
(-0.185273812 -0.0173092957 0)
(-0.179227544 -0.0517729591 0)
(-0.167060687 -0.0832686565 0)
(-0.149050927 -0.109570389 0)
(-0.125809064 -0.128239202 0)
(-0.098481857 -0.136696933 0)
(-0.0689278853 -0.132456227 0)
(-0.0398814856 -0.113521704 0)
(-0.0157375891 -0.0789798362 0)
(-0.00279365414 -0.0299204525 0)
(-0.00335558749 0.0386598267 0)
(-0.01835899 0.099828627 0)
(-0.0456106472 0.141149001 0)
(-0.0774898437 0.162368227 0)
(-0.108991001 0.165574068 0)
(-0.137340476 0.153875602 0)
(-0.160905736 0.13063249 0)
(-0.178870098 0.0990104212 0)
(-0.190943376 0.0617852114 0)
(-0.197080762 0.0213406291 0)
(-0.197293198 -0.0202106562 0)
(-0.191556676 -0.0608422122 0)
(-0.179812908 -0.0984096841 0)
(-0.162062651 -0.13046725 0)
(-0.13856143 -0.154151351 0)
(-0.11011087 -0.16619467 0)
(-0.0783600729 -0.163144861 0)
(-0.0461409214 -0.141843439 0)
(-0.0185657577 -0.100236638 0)
(-0.00338840881 -0.0387292536 0)
(-0.0041076914 0.0489852928 0)
(-0.0216449988 0.124008518 0)
(-0.0523542025 0.172385467 0)
(-0.0868591312 0.195134294 0)
(-0.119481315 0.196079171 0)
(-0.147583893 0.179902914 0)
(-0.170007081 0.151130522 0)
(-0.186501471 0.113650946 0)
(-0.197291777 0.070590076 0)
(-0.202708789 0.0244160539 0)
(-0.202959324 -0.0228287285 0)
(-0.198020708 -0.069238615 0)
(-0.187639345 -0.112739116 0)
(-0.171435197 -0.15079626 0)
(-0.149136083 -0.180184114 0)
(-0.1209575 -0.196885881 0)
(-0.0880571968 -0.196241901 0)
(-0.0531240565 -0.173469175 0)
(-0.021969074 -0.124737849 0)
(-0.00416716517 -0.0491838287 0)
(-0.00514672069 0.0612936559 0)
(-0.0257192169 0.151656868 0)
(-0.0598573305 0.20654086 0)
(-0.0960163553 0.229247357 0)
(-0.128010541 0.226252063 0)
(-0.153752942 0.204366562 0)
(-0.172950784 0.169499916 0)
(-0.186211835 0.126253698 0)
(-0.194456675 0.0779668299 0)
(-0.198488971 0.0269985685 0)
(-0.198753975 -0.024892109 0)
(-0.195235529 -0.0761392885 0)
(-0.187451788 -0.124956368 0)
(-0.174551723 -0.168923184 0)
(-0.155556651 -0.204598297 0)
(-0.12980073 -0.227232063 0)
(-0.0975421224 -0.23073403 0)
(-0.0608942997 -0.20812037 0)
(-0.0261884411 -0.152833974 0)
(-0.00524278198 -0.0616930982 0)
(-0.00667695483 0.0761991923 0)
(-0.0309618097 0.183102316 0)
(-0.0681131725 0.242881286 0)
(-0.104061118 0.262937307 0)
(-0.132609117 0.253713734 0)
(-0.152911315 0.22476731 0)
(-0.166064271 0.183506308 0)
(-0.173836896 0.135093403 0)
(-0.177984692 0.0828291886 0)
(-0.179830223 0.0286992401 0)
(-0.180068011 -0.0260728477 0)
(-0.178694667 -0.0805072256 0)
(-0.175001632 -0.133363402 0)
(-0.167632222 -0.182612023 0)
(-0.154769962 -0.224863996 0)
(-0.134563333 -0.254804106 0)
(-0.105835094 -0.264801055 0)
(-0.0694045862 -0.245035406 0)
(-0.0315959989 -0.184858168 0)
(-0.00682084443 -0.0768885791 0)
(-0.00906576377 0.0947026429 0)
(-0.0379246445 0.218538327 0)
(-0.0767913835 0.279804168 0)
(-0.109143731 0.293208671 0)
(-0.129924726 0.274900167 0)
(-0.140578599 0.237679782 0)
(-0.144175982 0.190296538 0)
(-0.143858223 0.138083672 0)
(-0.142218392 0.0839087333 0)
(-0.141028904 0.0290636812 0)
(-0.141180989 -0.0260145509 0)
(-0.142689435 -0.0811589737 0)
(-0.144683429 -0.135932442 0)
(-0.145383992 -0.189029522 0)
(-0.142149472 -0.237529637 0)
(-0.13174177 -0.275969879 0)
(-0.110959042 -0.295359027 0)
(-0.0782481858 -0.282539182 0)
(-0.038721814 -0.220978847 0)
(-0.00926852074 -0.095783973 0)
(-0.0129064981 0.118408543 0)
(-0.0471897023 0.257615172 0)
(-0.0845412825 0.314085573 0)
(-0.107433024 0.315236804 0)
(-0.114222044 0.284803039 0)
(-0.109987078 0.238796061 0)
(-0.100191609 0.186611103 0)
(-0.0892602721 0.133024638 0)
(-0.0803513424 0.0799415637 0)
(-0.0754276676 0.0276432404 0)
(-0.0754289748 -0.0243954545 0)
(-0.0803895506 -0.0769480871 0)
(-0.0894298916 -0.130558971 0)
(-0.100620783 -0.184972281 0)
(-0.110789498 -0.238285714 0)
(-0.115426943 -0.285651536 0)
(-0.108905908 -0.317458338 0)
(-0.0859441543 -0.317272945 0)
(-0.0480970317 -0.260766777 0)
(-0.0131729807 -0.119982479 0)
(-0.0188565039 0.149839413 0)
(-0.0584939927 0.298411266 0)
(-0.0871238304 0.339552568 0)
(-0.0910298042 0.321660366 0)
(-0.0757519605 0.276980954 0)
(-0.0511223671 0.223384747 0)
(-0.0247385395 0.169390589 0)
(-0.00161211405 0.118146571 0)
(0.0152214295 0.0700342577 0)
(0.0241045251 0.0241323119 0)
(0.024302299 -0.0210356795 0)
(0.0157673084 -0.0671084032 0)
(-0.000856602894 -0.115596932 0)
(-0.0239880013 -0.167483974 0)
(-0.0506315561 -0.222453472 0)
(-0.0757440661 -0.277375536 0)
(-0.0915838393 -0.323604379 0)
(-0.0880579896 -0.342864161 0)
(-0.059347679 -0.302137066 0)
(-0.01916492 -0.151974069 0)
(-0.0264625441 0.193171191 0)
(-0.0677000397 0.335014322 0)
(-0.0729896231 0.344651853 0)
(-0.0441147989 0.301756052 0)
(0.00159043063 0.244051747 0)
(0.0502178739 0.187354314 0)
(0.0938180489 0.136864133 0)
(0.12836754 0.0929595277 0)
(0.152066822 0.0541905799 0)
(0.164225579 0.0185620124 0)
(0.164617876 -0.0160354692 0)
(0.153198336 -0.0517325255 0)
(0.130098915 -0.0906764469 0)
(0.0959095911 -0.134939066 0)
(0.052332715 -0.186079795 0)
(0.00333419746 -0.243831944 0)
(-0.0430904956 -0.303013979 0)
(-0.0728279148 -0.347547203 0)
(-0.0681295101 -0.338913012 0)
(-0.0267083259 -0.195840587 0)
(-0.0289527562 0.25133131 0)
(-0.0581036101 0.350741895 0)
(-0.0140170756 0.309539068 0)
(0.0632657929 0.2424006 0)
(0.142946957 0.180310323 0)
(0.212723818 0.12991944 0)
(0.268472776 0.0905925622 0)
(0.309449327 0.0595774618 0)
(0.336245829 0.034034593 0)
(0.349654593 0.0115487753 0)
(0.350147695 -0.00995156045 0)
(0.337700435 -0.0324236415 0)
(0.311782816 -0.0579641631 0)
(0.271519282 -0.0890461144 0)
(0.216198154 -0.128613178 0)
(0.146424036 -0.179576157 0)
(0.0662122529 -0.242735897 0)
(-0.0121382487 -0.311417368 0)
(-0.0574832356 -0.354042304 0)
(-0.0288312478 -0.254177676 0)
(0.0132195569 0.289507491 0)
(0.0296816876 0.302854556 0)
(0.154179693 0.214068809 0)
(0.282833702 0.142345221 0)
(0.382969601 0.0939486684 0)
(0.457130857 0.0619624519 0)
(0.510502492 0.0405509457 0)
(0.547090516 0.0255474093 0)
(0.569959927 0.0142061121 0)
(0.581116176 0.00473812068 0)
(0.581523402 -0.00414301257 0)
(0.57118499 -0.0135724681 0)
(0.549136894 -0.0248412668 0)
(0.513349854 -0.0397538533 0)
(0.460686705 -0.0611006447 0)
(0.387005995 -0.0931595581 0)
(0.286924356 -0.141969628 0)
(0.15762611 -0.214616956 0)
(0.0318291837 -0.304532301 0)
(0.0142600287 -0.291324499 0)
(0.30424512 0.147454744 0)
(0.405563373 0.127829554 0)
(0.569531342 0.0747834998 0)
(0.686121677 0.0418385764 0)
(0.753522532 0.0238429737 0)
(0.794598209 0.0139302385 0)
(0.820887684 0.00829802253 0)
(0.837586478 0.00488893146 0)
(0.847522292 0.0026005274 0)
(0.852223005 0.000835245313 0)
(0.852350811 -0.0007723091 0)
(0.847917609 -0.00252075534 0)
(0.838285536 -0.00477209208 0)
(0.821949449 -0.00811771523 0)
(0.796091298 -0.0136558008 0)
(0.755502851 -0.0234583765 0)
(0.688596478 -0.0413908876 0)
(0.572194812 -0.0744403306 0)
(0.4075242 -0.12786856 0)
(0.305169545 -0.147795834 0)
)
;

boundaryField
{
    top
    {
        type            fixedValue;
        value           uniform (1 0 0);
    }
    left
    {
        type            fixedValue;
        value           uniform (0 0 0);
    }
    right
    {
        type            fixedValue;
        value           uniform (0 0 0);
    }
    bottom
    {
        type            fixedValue;
        value           uniform (0 0 0);
    }
    back0
    {
        type            empty;
    }
    front1
    {
        type            empty;
    }
}


// ************************************************************************* //
