/*--------------------------------*- C++ -*----------------------------------*\
| =========                 |                                                 |
| \\      /  F ield         | OpenFOAM: The Open Source CFD Toolbox           |
|  \\    /   O peration     | Version:  3.0.1                                 |
|   \\  /    A nd           | Web:      www.OpenFOAM.org                      |
|    \\/     M anipulation  |                                                 |
\*---------------------------------------------------------------------------*/
FoamFile
{
    version     2.0;
    format      ascii;
    class       volScalarField;
    location    "4";
    object      p;
}
// * * * * * * * * * * * * * * * * * * * * * * * * * * * * * * * * * * * * * //

dimensions      [0 2 -2 0 0 0 0];

internalField   nonuniform List<scalar> 
400
(
1.29693584e-05
-0.0581794419
-0.130469029
-0.18630968
-0.207270495
-0.185026037
-0.11894799
-0.0139469173
0.121294168
0.275658359
0.436646437
0.591277626
0.726953712
0.832395313
0.898754545
0.921021178
0.899838191
0.843668641
0.771154082
0.712966833
0.0576653
-0.00211712398
-0.0588134892
-0.0973405761
-0.108536627
-0.0865500288
-0.0306361851
0.0556547849
0.165732703
0.290946481
0.421425291
0.546867078
0.657317812
0.743989509
0.800152183
0.822169141
0.810791856
0.771981544
0.715090577
0.655348898
0.134138905
0.0513331936
-0.0100375906
-0.0456299356
-0.0547652168
-0.0342014179
0.015997349
0.0923777017
0.189147247
0.298880695
0.413144631
0.523135921
0.62033121
0.69715554
0.747659751
0.768286372
0.758965002
0.723045223
0.661423504
0.578649012
0.20481158
0.0902439279
0.0138903344
-0.026726319
-0.0378533754
-0.018554406
0.0298969916
0.103403258
0.196112907
0.300950028
0.410048474
0.51523374
0.608527703
0.682664935
0.731587981
0.751049213
0.739740671
0.698709222
0.621972851
0.507347596
0.253508142
0.105275569
0.0109444146
-0.0368400764
-0.050248676
-0.03039832
0.0200927899
0.0961425487
0.191407817
0.298699271
0.410248938
0.518038509
0.614155806
0.691162572
0.742433698
0.762661439
0.749140365
0.700854067
0.605941972
0.457448763
0.268643747
0.0859427253
-0.0271784948
-0.0819101284
-0.0958467506
-0.0720734152
-0.0147000193
0.0699346456
0.174672217
0.291874591
0.413537636
0.531463521
0.637461508
0.723564689
0.782226591
0.80677071
0.792912141
0.737631131
0.623667215
0.440343553
0.240191695
0.0218447991
-0.109790403
-0.169455103
-0.180308277
-0.147593976
-0.0771768018
0.0230604215
0.144878774
0.279959418
0.419854191
0.55598329
0.67965843
0.782129008
0.854626246
0.88877173
0.878390461
0.818227327
0.685436463
0.465895988
0.157379562
-0.0984646724
-0.247335674
-0.307983821
-0.310036889
-0.261458023
-0.170304454
-0.0463325553
0.100933181
0.262386963
0.429088776
0.59204502
0.742010644
0.869320433
0.963737737
1.01479668
1.01393064
0.95302611
0.802670024
0.544807644
0.00682043126
-0.289039409
-0.452562243
-0.507806529
-0.492708995
-0.418979415
-0.297522101
-0.140342495
0.0416257684
0.238543937
0.441132793
0.640166554
0.825986628
0.988044566
1.11447052
1.19227113
1.20975207
1.15482244
0.98954117
0.690560714
-0.229310101
-0.568117715
-0.74149534
-0.78138037
-0.737158233
-0.625911102
-0.46227479
-0.260883213
-0.034055373
0.207921569
0.455850664
0.700737211
0.932927054
1.14125968
1.31222135
1.4298457
1.47832876
1.43985123
1.26462797
0.92133811
-0.575727283
-0.960189161
-1.13454169
-1.14347318
-1.05290922
-0.887669817
-0.667179892
-0.40896101
-0.126411932
0.170365169
0.473046454
0.773708372
1.06349994
1.33128839
1.56220889
1.73701023
1.83461749
1.82895922
1.65307215
1.26260467
-1.06817147
-1.49909825
-1.65784031
-1.61106499
-1.44924218
-1.2080787
-0.912793379
-0.583661001
-0.234336547
0.126418332
0.49243837
0.858197628
1.21695873
1.55881099
1.86839096
2.12328272
2.29604813
2.34903488
2.1897909
1.75140908
-1.76128091
-2.23295527
-2.34473302
-2.20255464
-1.93334867
-1.58729312
-1.19576687
-0.780736049
-0.354388732
0.0777594213
0.513609125
0.951938979
1.39007794
1.82132394
2.23163072
2.59653854
2.88184622
3.03456548
2.9245068
2.44448215
-2.7448931
-3.23205437
-3.23654947
-2.93505606
-2.50658463
-2.01827632
-1.50607188
-0.990679705
-0.479638826
0.0276851892
0.535858961
1.05046521
1.57556057
2.11067718
2.64643741
3.15945898
3.61045453
3.92850168
3.92978893
3.43486389
-4.17747557
-4.60038328
-4.37986307
-3.81686146
-3.1567694
-2.48069546
-1.82282355
-1.19618389
-0.59834273
-0.0184706782
0.557839234
1.14586702
1.75963194
2.40907972
3.09505364
3.80198283
4.49208528
5.07954131
5.31260861
4.88572179
-6.34323838
-6.48580478
-5.81650569
-4.83465644
-3.84762768
-2.93384919
-2.11033421
-1.37032517
-0.693357222
-0.0534122209
0.577031016
1.2256873
1.91984513
2.68495009
3.54034362
4.49079821
5.51597178
6.53203638
7.22415314
7.0873411
-9.75188213
-9.07983073
-7.56453138
-5.94264527
-4.5140738
-3.31585138
-2.31971783
-1.47908304
-0.744416616
-0.0692742579
0.589460186
1.27359886
2.02617011
2.89336736
3.92417678
5.16414896
6.63916666
8.30659675
9.85896413
10.5557769
-15.5433299
-12.6187534
-9.51835812
-6.98634597
-5.01739487
-3.52004496
-2.37791186
-1.47715478
-0.727275638
-0.0583291775
0.587938121
1.26606237
2.03431499
2.96264748
4.14155046
5.68496781
7.70865365
10.2996173
13.4578366
16.4393287
-26.6989356
-17.2351025
-10.9792012
-7.32482928
-4.90990999
-3.25998114
-2.11101211
-1.26487837
-0.591694016
-0.0063477628
0.554955724
1.14983599
1.84213059
2.71703199
3.90465345
5.60432289
8.0826657
11.8138323
18.1587917
27.7253829
-45.3500315
-21.7256787
-10.5196191
-6.01119892
-3.66544841
-2.26805919
-1.387747
-0.779797607
-0.311074495
0.0921370893
0.479140871
0.892774446
1.38229384
2.02122568
2.94239689
4.39197671
6.80870922
11.4142715
22.734368
46.4739076
)
;

boundaryField
{
    top
    {
        type            zeroGradient;
    }
    left
    {
        type            zeroGradient;
    }
    right
    {
        type            zeroGradient;
    }
    bottom
    {
        type            zeroGradient;
    }
    back0
    {
        type            empty;
    }
    front1
    {
        type            empty;
    }
}


// ************************************************************************* //
