/*--------------------------------*- C++ -*----------------------------------*\
| =========                 |                                                 |
| \\      /  F ield         | OpenFOAM: The Open Source CFD Toolbox           |
|  \\    /   O peration     | Version:  3.0.0                                 |
|   \\  /    A nd           | Web:      www.OpenFOAM.org                      |
|    \\/     M anipulation  |                                                 |
\*---------------------------------------------------------------------------*/
FoamFile
{
    version     2.0;
    format      ascii;
    class       volScalarField;
    location    "4";
    object      p;
}
// * * * * * * * * * * * * * * * * * * * * * * * * * * * * * * * * * * * * * //

dimensions      [0 2 -2 0 0 0 0];

internalField   nonuniform List<scalar> 
400
(
1.29694e-05
-0.0581794
-0.130469
-0.18631
-0.20727
-0.185026
-0.118948
-0.0139469
0.121294
0.275658
0.436646
0.591278
0.726954
0.832395
0.898755
0.921021
0.899838
0.843669
0.771154
0.712967
0.0576653
-0.00211712
-0.0588135
-0.0973406
-0.108537
-0.08655
-0.0306362
0.0556548
0.165733
0.290946
0.421425
0.546867
0.657318
0.74399
0.800152
0.822169
0.810792
0.771982
0.715091
0.655349
0.134139
0.0513332
-0.0100376
-0.0456299
-0.0547652
-0.0342014
0.0159973
0.0923777
0.189147
0.298881
0.413145
0.523136
0.620331
0.697156
0.74766
0.768286
0.758965
0.723045
0.661424
0.578649
0.204812
0.0902439
0.0138903
-0.0267263
-0.0378534
-0.0185544
0.029897
0.103403
0.196113
0.30095
0.410048
0.515234
0.608528
0.682665
0.731588
0.751049
0.739741
0.698709
0.621973
0.507348
0.253508
0.105276
0.0109444
-0.0368401
-0.0502487
-0.0303983
0.0200928
0.0961425
0.191408
0.298699
0.410249
0.518039
0.614156
0.691163
0.742434
0.762661
0.74914
0.700854
0.605942
0.457449
0.268644
0.0859427
-0.0271785
-0.0819101
-0.0958468
-0.0720734
-0.0147
0.0699346
0.174672
0.291875
0.413538
0.531464
0.637462
0.723565
0.782227
0.806771
0.792912
0.737631
0.623667
0.440344
0.240192
0.0218448
-0.10979
-0.169455
-0.180308
-0.147594
-0.0771768
0.0230604
0.144879
0.279959
0.419854
0.555983
0.679658
0.782129
0.854626
0.888772
0.87839
0.818227
0.685436
0.465896
0.15738
-0.0984647
-0.247336
-0.307984
-0.310037
-0.261458
-0.170304
-0.0463326
0.100933
0.262387
0.429089
0.592045
0.742011
0.86932
0.963738
1.0148
1.01393
0.953026
0.80267
0.544808
0.00682043
-0.289039
-0.452562
-0.507807
-0.492709
-0.418979
-0.297522
-0.140342
0.0416258
0.238544
0.441133
0.640167
0.825987
0.988045
1.11447
1.19227
1.20975
1.15482
0.989541
0.690561
-0.22931
-0.568118
-0.741495
-0.78138
-0.737158
-0.625911
-0.462275
-0.260883
-0.0340554
0.207922
0.455851
0.700737
0.932927
1.14126
1.31222
1.42985
1.47833
1.43985
1.26463
0.921338
-0.575727
-0.960189
-1.13454
-1.14347
-1.05291
-0.88767
-0.66718
-0.408961
-0.126412
0.170365
0.473046
0.773708
1.0635
1.33129
1.56221
1.73701
1.83462
1.82896
1.65307
1.2626
-1.06817
-1.4991
-1.65784
-1.61106
-1.44924
-1.20808
-0.912793
-0.583661
-0.234337
0.126418
0.492438
0.858198
1.21696
1.55881
1.86839
2.12328
2.29605
2.34903
2.18979
1.75141
-1.76128
-2.23296
-2.34473
-2.20255
-1.93335
-1.58729
-1.19577
-0.780736
-0.354389
0.0777594
0.513609
0.951939
1.39008
1.82132
2.23163
2.59654
2.88185
3.03457
2.92451
2.44448
-2.74489
-3.23205
-3.23655
-2.93506
-2.50658
-2.01828
-1.50607
-0.99068
-0.479639
0.0276852
0.535859
1.05047
1.57556
2.11068
2.64644
3.15946
3.61045
3.9285
3.92979
3.43486
-4.17748
-4.60038
-4.37986
-3.81686
-3.15677
-2.4807
-1.82282
-1.19618
-0.598343
-0.0184707
0.557839
1.14587
1.75963
2.40908
3.09505
3.80198
4.49209
5.07954
5.31261
4.88572
-6.34324
-6.4858
-5.81651
-4.83466
-3.84763
-2.93385
-2.11033
-1.37033
-0.693357
-0.0534122
0.577031
1.22569
1.91985
2.68495
3.54034
4.4908
5.51597
6.53204
7.22415
7.08734
-9.75188
-9.07983
-7.56453
-5.94265
-4.51407
-3.31585
-2.31972
-1.47908
-0.744417
-0.0692743
0.58946
1.2736
2.02617
2.89337
3.92418
5.16415
6.63917
8.3066
9.85896
10.5558
-15.5433
-12.6188
-9.51836
-6.98635
-5.01739
-3.52004
-2.37791
-1.47715
-0.727276
-0.0583292
0.587938
1.26606
2.03431
2.96265
4.14155
5.68497
7.70865
10.2996
13.4578
16.4393
-26.6989
-17.2351
-10.9792
-7.32483
-4.90991
-3.25998
-2.11101
-1.26488
-0.591694
-0.00634776
0.554956
1.14984
1.84213
2.71703
3.90465
5.60432
8.08267
11.8138
18.1588
27.7254
-45.35
-21.7257
-10.5196
-6.0112
-3.66545
-2.26806
-1.38775
-0.779798
-0.311074
0.0921371
0.479141
0.892774
1.38229
2.02123
2.9424
4.39198
6.80871
11.4143
22.7344
46.4739
)
;

boundaryField
{
    top
    {
        type            zeroGradient;
    }
    left
    {
        type            zeroGradient;
    }
    right
    {
        type            zeroGradient;
    }
    bottom
    {
        type            zeroGradient;
    }
    back0
    {
        type            empty;
    }
    front1
    {
        type            empty;
    }
}


// ************************************************************************* //
