/*--------------------------------*- C++ -*----------------------------------*\
| =========                 |                                                 |
| \\      /  F ield         | OpenFOAM: The Open Source CFD Toolbox           |
|  \\    /   O peration     | Version:  3.0.1                                 |
|   \\  /    A nd           | Web:      www.OpenFOAM.org                      |
|    \\/     M anipulation  |                                                 |
\*---------------------------------------------------------------------------*/
FoamFile
{
    version     2.0;
    format      ascii;
    class       volVectorField;
    location    "4";
    object      vorticity;
}
// * * * * * * * * * * * * * * * * * * * * * * * * * * * * * * * * * * * * * //

dimensions      [0 0 -1 0 0 0 0];

internalField   nonuniform List<vector> 
400
(
(0 -0 -0.00347018745)
(0 -0 0.0221859545)
(0 -0 0.0755179352)
(0 -0 0.156108881)
(0 -0 0.254454359)
(0 -0 0.35869068)
(0 -0 0.457259113)
(0 -0 0.540229341)
(0 -0 0.599920683)
(0 -0 0.631138615)
(0 -0 0.631252162)
(0 -0 0.600220462)
(0 -0 0.540607821)
(0 -0 0.4575824)
(0 -0 0.358850474)
(0 -0 0.254412338)
(0 -0 0.155914052)
(0 -0 0.0752824595)
(0 -0 0.0220150831)
(0 -0 -0.00355282169)
(0 -0 0.0218556941)
(0 -0 0.0761113248)
(0 -0 0.12810438)
(0 -0 0.186678513)
(0 -0 0.251556639)
(0 -0 0.318273371)
(0 -0 0.380917549)
(0 -0 0.433681303)
(0 -0 0.471724368)
(0 -0 0.491634135)
(0 -0 0.491655228)
(0 -0 0.471784287)
(0 -0 0.433770983)
(0 -0 0.381024555)
(0 -0 0.318383871)
(0 -0 0.251655384)
(0 -0 0.186746485)
(0 -0 0.128115765)
(0 -0 0.0760345058)
(0 -0 0.0216761945)
(0 -0 0.0753319406)
(0 -0 0.132299901)
(0 -0 0.174101854)
(0 -0 0.210913915)
(0 -0 0.246757866)
(0 -0 0.281835156)
(0 -0 0.314345959)
(0 -0 0.341749177)
(0 -0 0.361586307)
(0 -0 0.371991065)
(0 -0 0.371977502)
(0 -0 0.361565445)
(0 -0 0.341772003)
(0 -0 0.314471366)
(0 -0 0.282098443)
(0 -0 0.247141171)
(0 -0 0.211330876)
(0 -0 0.17440747)
(0 -0 0.132330339)
(0 -0 0.074974027)
(0 -0 0.162175538)
(0 -0 0.203667929)
(0 -0 0.225096373)
(0 -0 0.236099222)
(0 -0 0.242668964)
(0 -0 0.247868162)
(0 -0 0.252763831)
(0 -0 0.257268382)
(0 -0 0.260797408)
(0 -0 0.26273592)
(0 -0 0.262728549)
(0 -0 0.260811021)
(0 -0 0.257394707)
(0 -0 0.253108179)
(0 -0 0.248492107)
(0 -0 0.243536228)
(0 -0 0.237046155)
(0 -0 0.225845536)
(0 -0 0.203891867)
(0 -0 0.161606305)
(0 -0 0.2820447)
(0 -0 0.295149365)
(0 -0 0.286568452)
(0 -0 0.265744775)
(0 -0 0.239935019)
(0 -0 0.214143868)
(0 -0 0.191481258)
(0 -0 0.173666891)
(0 -0 0.161526649)
(0 -0 0.155399744)
(0 -0 0.155416249)
(0 -0 0.161627211)
(0 -0 0.173982985)
(0 -0 0.192164923)
(0 -0 0.215285022)
(0 -0 0.241479707)
(0 -0 0.267443789)
(0 -0 0.28798415)
(0 -0 0.295735798)
(0 -0 0.281301902)
(0 -0 0.434347835)
(0 -0 0.408435856)
(0 -0 0.360420918)
(0 -0 0.300489395)
(0 -0 0.23724474)
(0 -0 0.177296121)
(0 -0 0.125311134)
(0 -0 0.084332827)
(0 -0 0.0561929849)
(0 -0 0.0419007167)
(0 -0 0.0419279421)
(0 -0 0.0563468553)
(0 -0 0.084801658)
(0 -0 0.12632043)
(0 -0 0.17899552)
(0 -0 0.239588799)
(0 -0 0.303149983)
(0 -0 0.362772641)
(0 -0 0.409645653)
(0 -0 0.433583334)
(0 -0 0.6195562)
(0 -0 0.544059353)
(0 -0 0.446464619)
(0 -0 0.338793226)
(0 -0 0.231436411)
(0 -0 0.132583236)
(0 -0 0.048165742)
(0 -0 -0.017848898)
(0 -0 -0.063008938)
(0 -0 -0.085927982)
(0 -0 -0.08594373)
(0 -0 -0.062951064)
(0 -0 -0.017437484)
(0 -0 0.049284288)
(0 -0 0.134684788)
(0 -0 0.234547308)
(0 -0 0.342544552)
(0 -0 0.450033512)
(0 -0 0.546256049)
(0 -0 0.619098248)
(0 -0 0.83952541)
(0 -0 0.702185259)
(0 -0 0.543057057)
(0 -0 0.37721205)
(0 -0 0.217452901)
(0 -0 0.073646297)
(0 -0 -0.047271794)
(0 -0 -0.140843071)
(0 -0 -0.204444001)
(0 -0 -0.236661243)
(0 -0 -0.236825145)
(0 -0 -0.204780903)
(0 -0 -0.140930981)
(0 -0 -0.046546595)
(0 -0 0.07569399)
(0 -0 0.221035481)
(0 -0 0.382010892)
(0 -0 0.548083443)
(0 -0 0.705839848)
(0 -0 0.839948497)
(0 -0 1.09750745)
(0 -0 0.882743783)
(0 -0 0.647103519)
(0 -0 0.410205569)
(0 -0 0.188018696)
(0 -0 -0.00785145)
(0 -0 -0.169874932)
(0 -0 -0.293726622)
(0 -0 -0.377236298)
(0 -0 -0.419443626)
(0 -0 -0.419921441)
(0 -0 -0.378445893)
(0 -0 -0.295043959)
(0 -0 -0.170420419)
(0 -0 -0.00673291)
(0 -0 0.191378344)
(0 -0 0.415708871)
(0 -0 0.653702528)
(0 -0 0.888420825)
(0 -0 1.09970105)
(0 -0 1.39816945)
(0 -0 1.08514939)
(0 -0 0.753480302)
(0 -0 0.429411694)
(0 -0 0.132938109)
(0 -0 -0.12278155)
(0 -0 -0.330437366)
(0 -0 -0.486868708)
(0 -0 -0.591310625)
(0 -0 -0.643954157)
(0 -0 -0.644973289)
(0 -0 -0.594058643)
(0 -0 -0.4904638)
(0 -0 -0.333573982)
(0 -0 -0.12400401)
(0 -0 0.134821334)
(0 -0 0.434805423)
(0 -0 0.761507936)
(0 -0 1.09345669)
(0 -0 1.40339398)
(0 -0 1.74784938)
(0 -0 1.30760397)
(0 -0 0.853724578)
(0 -0 0.422202145)
(0 -0 0.0378816)
(0 -0 -0.28536182)
(0 -0 -0.54206921)
(0 -0 -0.731987108)
(0 -0 -0.857215933)
(0 -0 -0.92010595)
(0 -0 -0.921938923)
(0 -0 -0.862315342)
(0 -0 -0.739187644)
(0 -0 -0.54955925)
(0 -0 -0.29094399)
(0 -0 0.03632074)
(0 -0 0.425987549)
(0 -0 0.8625743)
(0 -0 1.31908028)
(0 -0 1.75776046)
(0 -0 2.15519783)
(0 -0 1.54564013)
(0 -0 0.933494578)
(0 -0 0.369131891)
(0 -0 -0.11752993)
(0 -0 -0.51424726)
(0 -0 -0.82055673)
(0 -0 -1.04197661)
(0 -0 -1.18562215)
(0 -0 -1.25737505)
(0 -0 -1.26029171)
(0 -0 -1.19390299)
(0 -0 -1.05421609)
(0 -0 -0.83444904)
(0 -0 -0.52674998)
(0 -0 -0.12529899)
(0 -0 0.368895886)
(0 -0 0.941805855)
(0 -0 1.56054196)
(0 -0 2.1718075)
(0 -0 2.63220553)
(0 -0 1.78887521)
(0 -0 0.96769043)
(0 -0 0.239598242)
(0 -0 -0.36255812)
(0 -0 -0.8338177)
(0 -0 -1.18448709)
(0 -0 -1.43030731)
(0 -0 -1.58632446)
(0 -0 -1.66362104)
(0 -0 -1.66779451)
(0 -0 -1.5983665)
(0 -0 -1.44873157)
(0 -0 -1.20668325)
(0 -0 -0.85599263)
(0 -0 -0.3799602)
(0 -0 0.231856194)
(0 -0 0.972967735)
(0 -0 1.806802)
(0 -0 2.65772487)
(0 -0 3.19470519)
(0 -0 2.0132942)
(0 -0 0.910984531)
(0 -0 -0.01532096)
(0 -0 -0.73915962)
(0 -0 -1.27527866)
(0 -0 -1.65468774)
(0 -0 -1.90964428)
(0 -0 -2.0665334)
(0 -0 -2.14325839)
(0 -0 -2.14861691)
(0 -0 -2.08223008)
(0 -0 -1.93442288)
(0 -0 -1.68608634)
(0 -0 -1.30920822)
(0 -0 -0.76965781)
(0 -0 -0.03498488)
(0 -0 0.909197483)
(0 -0 2.03256243)
(0 -0 3.2311496)
(0 -0 3.85814461)
(0 -0 2.1624638)
(0 -0 0.679540792)
(0 -0 -0.473964603)
(0 -0 -1.30613509)
(0 -0 -1.8764817)
(0 -0 -2.25208867)
(0 -0 -2.48915648)
(0 -0 -2.62821219)
(0 -0 -2.69470446)
(0 -0 -2.70074616)
(0 -0 -2.6462026)
(0 -0 -2.51851021)
(0 -0 -2.29122734)
(0 -0 -1.9219717)
(0 -0 -1.35170328)
(0 -0 -0.50996612)
(0 -0 0.665013645)
(0 -0 2.17916332)
(0 -0 3.90645659)
(0 -0 4.61806727)
(0 -0 2.10223493)
(0 -0 0.116974402)
(0 -0 -1.2588984)
(0 -0 -2.14088093)
(0 -0 -2.67795318)
(0 -0 -2.99247834)
(0 -0 -3.16984143)
(0 -0 -3.26432424)
(0 -0 -3.30723184)
(0 -0 -3.31287566)
(0 -0 -3.2814914)
(0 -0 -3.19904378)
(0 -0 -3.03386915)
(0 -0 -2.73013774)
(0 -0 -2.19912046)
(0 -0 -1.31304038)
(0 -0 0.083510735)
(0 -0 2.10922571)
(0 -0 4.67646481)
(0 -0 5.38281762)
(0 -0 1.51090278)
(0 -0 -1.06365025)
(0 -0 -2.54895703)
(0 -0 -3.33100657)
(0 -0 -3.71033798)
(0 -0 -3.87606102)
(0 -0 -3.93734995)
(0 -0 -3.95421915)
(0 -0 -3.95776118)
(0 -0 -3.96139934)
(0 -0 -3.96574105)
(0 -0 -3.95845958)
(0 -0 -3.90910632)
(0 -0 -3.75722588)
(0 -0 -3.39102286)
(0 -0 -2.61511353)
(0 -0 -1.11818773)
(0 -0 1.49842174)
(0 -0 5.44419925)
(0 -0 5.62391095)
(0 -0 -0.391739721)
(0 -0 -3.35510612)
(0 -0 -4.56177245)
(0 -0 -4.9386033)
(0 -0 -4.96630745)
(0 -0 -4.87026422)
(0 -0 -4.75280946)
(0 -0 -4.65921791)
(0 -0 -4.6087675)
(0 -0 -4.60877943)
(0 -0 -4.65999257)
(0 -0 -4.75660452)
(0 -0 -4.88089278)
(0 -0 -4.98884034)
(0 -0 -4.97794516)
(0 -0 -4.61856063)
(0 -0 -3.41760431)
(0 -0 -0.427190021)
(0 -0 5.67251624)
(0 -0 2.59164163)
(0 -0 -5.39105665)
(0 -0 -7.44057749)
(0 -0 -7.42976022)
(0 -0 -6.90958345)
(0 -0 -6.35272117)
(0 -0 -5.88829953)
(0 -0 -5.54481986)
(0 -0 -5.32085751)
(0 -0 -5.20917533)
(0 -0 -5.20513703)
(0 -0 -5.30915427)
(0 -0 -5.52684108)
(0 -0 -5.86689546)
(0 -0 -6.33298849)
(0 -0 -6.89947799)
(0 -0 -7.43841623)
(0 -0 -7.46895733)
(0 -0 -5.41714978)
(0 -0 2.61856007)
(0 -0 -14.0725102)
(0 -0 -16.3742618)
(0 -0 -13.6227994)
(0 -0 -10.8198514)
(0 -0 -8.91416208)
(0 -0 -7.63815891)
(0 -0 -6.77651136)
(0 -0 -6.21020502)
(0 -0 -5.86571465)
(0 -0 -5.70033651)
(0 -0 -5.69481783)
(0 -0 -5.84897183)
(0 -0 -6.18174531)
(0 -0 -6.73584409)
(0 -0 -7.58562661)
(0 -0 -8.85226241)
(0 -0 -10.7546112)
(0 -0 -13.5665675)
(0 -0 -16.3400212)
(0 -0 -14.0490603)
)
;

boundaryField
{
    top
    {
        type            calculated;
        value           nonuniform List<vector> 
20
(
(0 -0 -25.0773522)
(0 -0 -24.5041774)
(0 -0 -18.078656)
(0 -0 -13.0645381)
(0 -0 -10.1381821)
(0 -0 -8.37152124)
(0 -0 -7.25490578)
(0 -0 -6.55351586)
(0 -0 -6.13964516)
(0 -0 -5.94480812)
(0 -0 -5.9395275)
(0 -0 -6.12329345)
(0 -0 -6.52454815)
(0 -0 -7.21085917)
(0 -0 -8.30975475)
(0 -0 -10.0572368)
(0 -0 -12.9659604)
(0 -0 -17.9769842)
(0 -0 -24.432587)
(0 -0 -25.0365742)
)
;
    }
    left
    {
        type            calculated;
        value           nonuniform List<vector> 
20
(
(0 -0 -0.0121582009)
(0 -0 -4.05817e-05)
(0 -0 0.0496992758)
(0 -0 0.142372729)
(0 -0 0.275552007)
(0 -0 0.447202544)
(0 -0 0.657559738)
(0 -0 0.909284821)
(0 -0 1.20742714)
(0 -0 1.55967794)
(0 -0 1.97732295)
(0 -0 2.47743882)
(0 -0 3.08715815)
(0 -0 3.85040124)
(0 -0 4.83424921)
(0 -0 6.129137)
(0 -0 7.82781009)
(0 -0 9.65643124)
(0 -0 8.24832076)
(0 -0 -10.9271635)
)
;
    }
    right
    {
        type            calculated;
        value           nonuniform List<vector> 
20
(
(0 -0 -0.0122547642)
(0 -0 -0.00030730558)
(0 -0 0.0490988705)
(0 -0 0.141331908)
(0 -0 0.274033962)
(0 -0 0.445295045)
(0 -0 0.655562235)
(0 -0 0.907811109)
(0 -0 1.20751626)
(0 -0 1.56290518)
(0 -0 1.9858968)
(0 -0 2.49426069)
(0 -0 3.11580057)
(0 -0 3.89488033)
(0 -0 4.89826321)
(0 -0 6.21431623)
(0 -0 7.93028672)
(0 -0 9.75742349)
(0 -0 8.31297199)
(0 -0 -10.8938709)
)
;
    }
    bottom
    {
        type            calculated;
        value           nonuniform List<vector> 
20
(
(0 -0 -0.0118785387)
(0 -0 0.00165176598)
(0 -0 0.0535432644)
(0 -0 0.143033748)
(0 -0 0.25681438)
(0 -0 0.379115229)
(0 -0 0.495324212)
(0 -0 0.593285175)
(0 -0 0.663783716)
(0 -0 0.700664958)
(0 -0 0.700827819)
(0 -0 0.664213021)
(0 -0 0.593825039)
(0 -0 0.495781041)
(0 -0 0.379333837)
(0 -0 0.256743193)
(0 -0 0.142750035)
(0 -0 0.0532156342)
(0 -0 0.00143233233)
(0 -0 -0.0119708586)
)
;
    }
    back0
    {
        type            empty;
    }
    front1
    {
        type            empty;
    }
}


// ************************************************************************* //
