/*--------------------------------*- C++ -*----------------------------------*\
| =========                 |                                                 |
| \\      /  F ield         | OpenFOAM: The Open Source CFD Toolbox           |
|  \\    /   O peration     | Version:  3.0.1                                 |
|   \\  /    A nd           | Web:      www.OpenFOAM.org                      |
|    \\/     M anipulation  |                                                 |
\*---------------------------------------------------------------------------*/
FoamFile
{
    version     2.0;
    format      ascii;
    class       volVectorField;
    location    "4";
    object      W;
}
// * * * * * * * * * * * * * * * * * * * * * * * * * * * * * * * * * * * * * //

dimensions      [0 1 -1 0 0 0 0];

internalField   nonuniform List<vector> 
400
(
(1.54489758e-08 -1.31518298e-08 0)
(9.36057252e-08 -7.74435881e-08 0)
(1.2695316e-07 -9.04919406e-08 0)
(-4.95788697e-08 -1.18473887e-08 0)
(-2.95814758e-07 1.23778693e-07 0)
(-3.84248841e-07 2.14411223e-07 0)
(-1.7958397e-07 1.66903045e-07 0)
(2.30374944e-07 -1.80781039e-08 0)
(5.67808514e-07 -2.29084172e-07 0)
(5.60422748e-07 -3.15255579e-07 0)
(1.57099225e-07 -1.97070173e-07 0)
(-4.06619399e-07 6.69797197e-08 0)
(-7.56222143e-07 3.11386166e-07 0)
(-6.38943662e-07 3.73340098e-07 0)
(-1.06426608e-07 2.02872087e-07 0)
(5.16131245e-07 -1.03417537e-07 0)
(8.4892941e-07 -3.6254952e-07 0)
(7.33173768e-07 -4.24165004e-07 0)
(4.11732715e-07 -2.93921756e-07 0)
(4.40999836e-08 -8.33395803e-08 0)
(-4.85460265e-08 5.60995723e-08 0)
(-1.45570984e-09 -1.01546595e-07 0)
(1.97442778e-07 -2.31528242e-07 0)
(2.141059e-07 -1.60276747e-07 0)
(2.25587283e-08 1.03923378e-07 0)
(-2.44866294e-07 3.91245061e-07 0)
(-3.7520242e-07 4.63050364e-07 0)
(-2.31785689e-07 2.03804856e-07 0)
(1.19173302e-07 -2.58504733e-07 0)
(4.3800571e-07 -6.16688807e-07 0)
(4.83044503e-07 -5.98583607e-07 0)
(1.95987531e-07 -1.74482559e-07 0)
(-2.4428411e-07 4.01723174e-07 0)
(-5.45950026e-07 7.55758307e-07 0)
(-5.13477281e-07 6.46531898e-07 0)
(-1.82805046e-07 1.33783563e-07 0)
(2.21955106e-07 -4.5326935e-07 0)
(5.21662931e-07 -7.59577685e-07 0)
(6.9288235e-07 -7.3429494e-07 0)
(2.60631588e-07 -4.76028937e-07 0)
(-1.17027177e-07 1.90261176e-07 0)
(-2.0177599e-07 1.08964719e-07 0)
(4.54469154e-08 -1.20376342e-07 0)
(2.80076374e-07 -2.73677269e-07 0)
(3.31230834e-07 -2.34753897e-07 0)
(1.26660201e-07 1.26590207e-08 0)
(-2.24692026e-07 3.16268602e-07 0)
(-4.70002811e-07 4.44816647e-07 0)
(-4.03243551e-07 2.69381871e-07 0)
(-3.49821269e-08 -1.21427959e-07 0)
(3.97004057e-07 -4.69270513e-07 0)
(5.92010001e-07 -5.27297386e-07 0)
(4.03866036e-07 -2.40913776e-07 0)
(-5.28451533e-08 2.07813956e-07 0)
(-4.85397936e-07 5.27130308e-07 0)
(-6.25725846e-07 5.24952769e-07 0)
(-3.96626463e-07 2.50035775e-07 0)
(1.22840265e-07 -9.89151182e-08 0)
(6.99154662e-07 -4.927453e-07 0)
(3.64044912e-07 -7.23236319e-07 0)
(-1.07263046e-07 1.30771695e-07 0)
(-2.91907218e-07 2.55794997e-07 0)
(-1.81065432e-07 1.21485432e-07 0)
(9.31790506e-08 -1.51929932e-07 0)
(3.65738575e-07 -3.83304451e-07 0)
(4.164395e-07 -3.69487599e-07 0)
(1.46412615e-07 -6.24142288e-08 0)
(-2.87120523e-07 3.53306338e-07 0)
(-5.70915643e-07 5.80311737e-07 0)
(-4.72797587e-07 4.29517547e-07 0)
(-2.87865391e-08 -2.73971585e-08 0)
(4.67884746e-07 -4.95108035e-07 0)
(6.72462754e-07 -6.59258373e-07 0)
(4.35994918e-07 -4.0855745e-07 0)
(-8.75889541e-08 8.95427217e-08 0)
(-5.47093225e-07 5.16143758e-07 0)
(-6.2661853e-07 6.32736592e-07 0)
(-2.25830847e-07 3.9739802e-07 0)
(3.98789847e-07 -1.89936121e-07 0)
(3.01191659e-07 -7.49688966e-07 0)
(5.22802597e-09 -1.1965717e-07 0)
(-1.55882576e-07 2.0654522e-07 0)
(-3.18786291e-07 3.36188352e-07 0)
(-2.24724968e-07 1.59515859e-07 0)
(1.11003048e-07 -2.02112479e-07 0)
(4.50872699e-07 -4.93641743e-07 0)
(5.03477616e-07 -4.65505224e-07 0)
(1.77703137e-07 -8.27201243e-08 0)
(-3.23197458e-07 4.17700591e-07 0)
(-6.40844514e-07 6.83586672e-07 0)
(-5.28547353e-07 5.05922094e-07 0)
(-4.29383681e-08 -1.80756392e-08 0)
(4.87344573e-07 -5.44481539e-07 0)
(6.94804613e-07 -7.23625359e-07 0)
(4.37109928e-07 -4.44877375e-07 0)
(-9.64070233e-08 9.29336091e-08 0)
(-5.11243087e-07 5.31381429e-07 0)
(-5.008938e-07 5.92193085e-07 0)
(-1.319367e-07 1.87147597e-07 0)
(8.33190743e-08 -3.8140337e-07 0)
(1.6074395e-07 -3.81279848e-07 0)
(1.67680299e-07 -3.5311676e-08 0)
(-2.30293013e-07 3.40713649e-07 0)
(-4.45367695e-07 4.33557191e-07 0)
(-2.93227477e-07 2.01767627e-07 0)
(1.42067984e-07 -2.38851513e-07 0)
(5.48121891e-07 -5.85423027e-07 0)
(5.98243559e-07 -5.55205317e-07 0)
(2.13768851e-07 -1.21024707e-07 0)
(-3.57335688e-07 4.41669824e-07 0)
(-7.11877977e-07 7.42786772e-07 0)
(-5.87469245e-07 5.61644497e-07 0)
(-6.04671258e-08 1.23958789e-08 0)
(5.03710819e-07 -5.34425101e-07 0)
(7.13358843e-07 -7.16397853e-07 0)
(4.37201402e-07 -4.36446487e-07 0)
(-9.56896437e-08 7.31596408e-08 0)
(-5.06487594e-07 4.4598373e-07 0)
(-5.69482704e-07 4.81965327e-07 0)
(-1.6344682e-07 1.85047744e-07 0)
(2.42221647e-07 -4.23555178e-07 0)
(4.65217411e-07 -3.11628986e-07 0)
(6.73268715e-08 7.43346641e-08 0)
(-3.68369547e-07 4.1972264e-07 0)
(-5.57660153e-07 5.27211038e-07 0)
(-3.39412713e-07 2.55604884e-07 0)
(1.79787024e-07 -2.62092364e-07 0)
(6.34713607e-07 -6.66329984e-07 0)
(6.73762613e-07 -6.41837896e-07 0)
(2.35859646e-07 -1.68947508e-07 0)
(-3.87716808e-07 4.44193317e-07 0)
(-7.58608073e-07 7.77689169e-07 0)
(-6.11985999e-07 6.03538652e-07 0)
(-5.31554793e-08 4.9641162e-08 0)
(5.1718898e-07 -4.97441052e-07 0)
(6.97618957e-07 -6.79285218e-07 0)
(3.82998017e-07 -4.27001451e-07 0)
(-1.9882592e-07 3.79976498e-08 0)
(-6.34080168e-07 4.88788396e-07 0)
(-2.9181935e-07 5.97421193e-07 0)
(1.64681639e-07 -1.47119067e-07 0)
(4.89904172e-07 -3.99179633e-07 0)
(3.7766728e-07 -3.01703399e-07 0)
(1.53731403e-09 7.20683298e-08 0)
(-4.49806862e-07 4.93901693e-07 0)
(-6.45712012e-07 6.28326357e-07 0)
(-3.76784202e-07 3.11935017e-07 0)
(2.08366075e-07 -2.75957303e-07 0)
(6.97143236e-07 -7.27797744e-07 0)
(7.22879544e-07 -7.08095329e-07 0)
(2.46995654e-07 -2.09454826e-07 0)
(-4.02501129e-07 4.32924836e-07 0)
(-7.6770492e-07 7.81776133e-07 0)
(-5.97055643e-07 6.12895499e-07 0)
(-3.0982801e-08 6.93847174e-08 0)
(5.03248773e-07 -4.58489573e-07 0)
(6.12993344e-07 -6.31275272e-07 0)
(2.25818667e-07 -3.74045613e-07 0)
(-3.02579424e-07 1.9445035e-07 0)
(-2.32173167e-07 6.09404058e-07 0)
(-4.68513392e-08 3.04670164e-07 0)
(1.63695311e-07 -1.91392304e-07 0)
(4.60850727e-07 -5.08163599e-07 0)
(4.26944856e-07 -3.84515324e-07 0)
(3.08545758e-09 7.8892072e-08 0)
(-5.19316815e-07 5.71079337e-07 0)
(-7.21257505e-07 7.15629533e-07 0)
(-4.07596185e-07 3.61672307e-07 0)
(2.26387096e-07 -2.76029828e-07 0)
(7.32732476e-07 -7.58659335e-07 0)
(7.43534573e-07 -7.4341923e-07 0)
(2.47082038e-07 -2.37815601e-07 0)
(-4.01166939e-07 4.05469121e-07 0)
(-7.41763682e-07 7.47838651e-07 0)
(-5.52482102e-07 5.81163629e-07 0)
(-1.19165941e-08 6.49834714e-08 0)
(4.43427205e-07 -4.11561958e-07 0)
(4.8305418e-07 -5.23180894e-07 0)
(1.86769552e-07 -2.00002828e-07 0)
(-3.62965455e-08 2.45457484e-07 0)
(-2.5868049e-07 6.19899975e-07 0)
(-3.30467296e-07 1.95546213e-07 0)
(2.21805885e-07 -3.62748427e-07 0)
(5.97736004e-07 -6.0874984e-07 0)
(5.03627941e-07 -4.38788236e-07 0)
(-9.85083057e-09 8.50065907e-08 0)
(-5.80046519e-07 6.23597854e-07 0)
(-7.74113967e-07 7.77208657e-07 0)
(-4.24746854e-07 4.02770556e-07 0)
(2.34727374e-07 -2.59786035e-07 0)
(7.38599251e-07 -7.55130448e-07 0)
(7.32587573e-07 -7.4504195e-07 0)
(2.33923447e-07 -2.52842847e-07 0)
(-3.87041368e-07 3.62555291e-07 0)
(-6.88748474e-07 6.783359e-07 0)
(-4.90718106e-07 5.17403573e-07 0)
(1.31815323e-09 6.26042808e-08 0)
(4.10736263e-07 -3.24391462e-07 0)
(5.06938564e-07 -4.27104088e-07 0)
(1.59775691e-07 -2.24971564e-07 0)
(-3.17339156e-07 5.41656935e-07 0)
(-6.55232875e-07 4.88644861e-07 0)
(-1.98599073e-07 6.34618358e-08 0)
(3.64901448e-07 -4.05188433e-07 0)
(6.9016863e-07 -6.74010767e-07 0)
(5.38843973e-07 -4.94507341e-07 0)
(-2.74002529e-08 7.28016022e-08 0)
(-6.15155021e-07 6.45976828e-07 0)
(-7.94075072e-07 8.09231036e-07 0)
(-4.25172678e-07 4.31784561e-07 0)
(2.32339546e-07 -2.29474058e-07 0)
(7.13240125e-07 -7.18442963e-07 0)
(6.89702676e-07 -7.13430821e-07 0)
(2.06966505e-07 -2.53360093e-07 0)
(-3.63383442e-07 3.09797572e-07 0)
(-6.12944153e-07 5.89262988e-07 0)
(-4.02098919e-07 4.5200084e-07 0)
(8.23399075e-08 6.4584299e-08 0)
(4.69710811e-07 -3.50335776e-07 0)
(2.31178565e-07 -4.87559348e-07 0)
(-1.64440352e-07 7.63032183e-08 0)
(-5.59704219e-07 4.5748438e-07 0)
(-5.10379276e-07 4.78330686e-07 0)
(-1.32357431e-07 1.08781263e-07 0)
(4.09359451e-07 -4.31007378e-07 0)
(7.33893743e-07 -7.38800024e-07 0)
(5.53729654e-07 -5.44896371e-07 0)
(-3.46373652e-08 4.95729013e-08 0)
(-6.18015467e-07 6.37897878e-07 0)
(-7.79695764e-07 8.07576721e-07 0)
(-4.09637821e-07 4.44084887e-07 0)
(2.19044345e-07 -1.89606696e-07 0)
(6.58698732e-07 -6.53125472e-07 0)
(6.18733829e-07 -6.51831668e-07 0)
(1.70309546e-07 -2.37541838e-07 0)
(-3.25078262e-07 2.59173168e-07 0)
(-5.01131478e-07 4.98923536e-07 0)
(-2.57225618e-07 3.6443e-07 0)
(1.4444194e-07 -5.67013117e-08 0)
(1.48260994e-07 -4.03621606e-07 0)
(1.10249128e-07 -4.82057553e-07 0)
(-7.71011841e-08 9.68295055e-08 0)
(-4.8383653e-07 5.76864961e-07 0)
(-5.53560685e-07 5.71194024e-07 0)
(-1.55750156e-07 1.31759269e-07 0)
(4.29581507e-07 -4.55247745e-07 0)
(7.51963743e-07 -7.72286507e-07 0)
(5.54135516e-07 -5.73521367e-07 0)
(-3.23553115e-08 1.88854581e-08 0)
(-5.91547596e-07 5.98107066e-07 0)
(-7.34198717e-07 7.69913028e-07 0)
(-3.79904082e-07 4.36366795e-07 0)
(1.9666368e-07 -1.45363915e-07 0)
(5.81533389e-07 -5.65562865e-07 0)
(5.30105394e-07 -5.6457288e-07 0)
(1.35891313e-07 -2.04766952e-07 0)
(-2.63688178e-07 2.09364834e-07 0)
(-3.79326508e-07 3.82988283e-07 0)
(-2.14972566e-07 2.24434541e-07 0)
(-1.23244215e-08 -8.61224952e-08 0)
(3.23165893e-07 -7.46510805e-07 0)
(4.7757797e-07 -3.54176113e-07 0)
(-1.25705764e-07 2.71816353e-07 0)
(-6.02320541e-07 6.39545486e-07 0)
(-6.10149142e-07 6.06441773e-07 0)
(-1.55905005e-07 1.53075447e-07 0)
(4.37184038e-07 -4.40860423e-07 0)
(7.38651543e-07 -7.61751726e-07 0)
(5.33350184e-07 -5.78828764e-07 0)
(-2.61072323e-08 -1.91021561e-08 0)
(-5.40963466e-07 5.28469834e-07 0)
(-6.6212887e-07 6.98905325e-07 0)
(-3.37305783e-07 4.09360518e-07 0)
(1.69964917e-07 -9.99990341e-08 0)
(4.92894401e-07 -4.62703216e-07 0)
(4.36613484e-07 -4.61866577e-07 0)
(1.0462039e-07 -1.72059242e-07 0)
(-2.34708472e-07 1.47202209e-07 0)
(-3.69075571e-07 3.0315459e-07 0)
(-1.33369117e-07 2.13449376e-07 0)
(3.24104814e-07 -5.16404919e-07 0)
(7.21609307e-07 -5.79544247e-07 0)
(3.17255092e-07 -2.31153388e-07 0)
(-2.47026898e-07 2.54703644e-07 0)
(-6.38055705e-07 6.42473913e-07 0)
(-6.02215734e-07 6.33619374e-07 0)
(-1.44108757e-07 1.90749297e-07 0)
(4.16169089e-07 -3.92724973e-07 0)
(6.86345279e-07 -7.15679642e-07 0)
(4.89538573e-07 -5.64356793e-07 0)
(-1.71094965e-08 -6.03852298e-08 0)
(-4.69736415e-07 4.38917334e-07 0)
(-5.67944728e-07 6.05347397e-07 0)
(-2.83328815e-07 3.68710677e-07 0)
(1.43128336e-07 -5.69535058e-08 0)
(3.99311355e-07 -3.58472252e-07 0)
(3.34016628e-07 -3.65448521e-07 0)
(3.13368224e-08 -1.39791632e-07 0)
(-2.59167483e-07 1.62842959e-07 0)
(-1.44566251e-07 3.03726727e-07 0)
(1.05757598e-07 6.7384047e-08 0)
(4.83445193e-07 -4.18175605e-07 0)
(5.41306725e-07 -5.75792491e-07 0)
(2.57220376e-07 -3.00233373e-07 0)
(-2.40336133e-07 2.24449814e-07 0)
(-6.10216214e-07 6.35674877e-07 0)
(-5.69590071e-07 6.35436145e-07 0)
(-1.43912324e-07 2.17756162e-07 0)
(3.64579301e-07 -3.3130777e-07 0)
(6.06581443e-07 -6.42787499e-07 0)
(4.35338023e-07 -5.25404494e-07 0)
(-9.99994185e-10 -8.98570326e-08 0)
(-3.83824178e-07 3.4752407e-07 0)
(-4.62738686e-07 5.01776666e-07 0)
(-2.26818134e-07 3.15705738e-07 0)
(1.11971284e-07 -2.716216e-08 0)
(2.9588655e-07 -2.68918673e-07 0)
(2.12470483e-07 -2.70311944e-07 0)
(-1.9267473e-08 -5.27395821e-08 0)
(-6.4270638e-08 1.786801e-07 0)
(-1.82643552e-07 6.11913725e-07 0)
(-5.83233857e-08 1.86223079e-08 0)
(4.21786606e-07 -5.112052e-07 0)
(5.67201063e-07 -6.00667444e-07 0)
(2.70644408e-07 -3.04202763e-07 0)
(-2.31817757e-07 1.90533303e-07 0)
(-5.76904123e-07 5.64860647e-07 0)
(-5.29759504e-07 5.72415143e-07 0)
(-1.38289414e-07 2.16426956e-07 0)
(3.16210243e-07 -2.55152418e-07 0)
(5.27460375e-07 -5.28851518e-07 0)
(3.78714884e-07 -4.44585405e-07 0)
(9.39080619e-09 -9.56799188e-08 0)
(-3.0608887e-07 2.57045779e-07 0)
(-3.66201746e-07 3.83644023e-07 0)
(-1.77570774e-07 2.43027054e-07 0)
(7.69280559e-08 -1.39521047e-08 0)
(2.05480186e-07 -1.86618515e-07 0)
(1.57260312e-07 -1.71886388e-07 0)
(3.03758187e-08 -1.47408197e-08 0)
(-3.42821399e-07 7.71971601e-07 0)
(-5.24901293e-07 4.73018633e-07 0)
(6.72184323e-08 -4.22076957e-08 0)
(4.88294704e-07 -4.04172644e-07 0)
(5.2447951e-07 -5.40530881e-07 0)
(2.17567395e-07 -3.56853079e-07 0)
(-2.1828517e-07 4.78849467e-08 0)
(-4.92859958e-07 4.10019218e-07 0)
(-4.35203895e-07 4.95805212e-07 0)
(-1.04497773e-07 2.65337876e-07 0)
(2.61475362e-07 -1.08143623e-07 0)
(4.20470357e-07 -3.69813659e-07 0)
(2.93294575e-07 -3.6450722e-07 0)
(3.37464362e-09 -1.34484878e-07 0)
(-2.32544629e-07 1.31870518e-07 0)
(-2.69699342e-07 2.51941838e-07 0)
(-1.2732095e-07 1.79691441e-07 0)
(6.37754814e-08 1.17205301e-08 0)
(1.69655408e-07 -1.2243238e-07 0)
(7.18105917e-08 -1.16254971e-07 0)
(-3.12564826e-07 5.69644804e-07 0)
(-7.21055948e-07 7.17309659e-07 0)
(-4.20931434e-07 5.1539407e-07 0)
(-2.31374919e-09 9.20748464e-08 0)
(3.64629976e-07 -3.91940607e-07 0)
(5.03282249e-07 -6.33630506e-07 0)
(3.28196309e-07 -4.74639342e-07 0)
(-3.87585741e-08 -3.05907692e-08 0)
(-3.51552368e-07 4.01595513e-07 0)
(-4.12935958e-07 5.516918e-07 0)
(-2.0744606e-07 3.53099695e-07 0)
(1.00180009e-07 -2.94919984e-08 0)
(2.95005098e-07 -3.32052597e-07 0)
(2.67208827e-07 -3.79806405e-07 0)
(7.59249774e-08 -1.93154939e-07 0)
(-1.17166557e-07 5.69148062e-08 0)
(-1.79919996e-07 1.94827222e-07 0)
(-9.35912826e-08 1.62861795e-07 0)
(4.75876723e-08 2.36076061e-08 0)
(4.46907482e-08 -7.5372833e-08 0)
(-1.59525074e-07 1.30965735e-07 0)
(-5.91687821e-07 2.85654419e-07 0)
(-7.25043681e-07 3.06328138e-07 0)
(-5.39263201e-07 1.78171418e-07 0)
(-5.06577613e-08 -5.27488678e-08 0)
(4.47036064e-07 -2.42438529e-07 0)
(6.43567943e-07 -2.73019744e-07 0)
(4.34944464e-07 -1.34481497e-07 0)
(-1.86438531e-08 7.55125759e-08 0)
(-4.12435575e-07 2.20710925e-07 0)
(-5.08600406e-07 2.17493945e-07 0)
(-2.87676144e-07 8.52930378e-08 0)
(6.26799612e-08 -7.5915852e-08 0)
(3.00673553e-07 -1.61708721e-07 0)
(3.02225178e-07 -1.33731903e-07 0)
(1.25689176e-07 -3.51868892e-08 0)
(-6.36547315e-08 5.3682829e-08 0)
(-1.32399883e-07 7.89578132e-08 0)
(-6.90558749e-08 3.97337455e-08 0)
(-1.18553362e-08 -1.64648295e-08 0)
)
;

boundaryField
{
    top
    {
        type            calculated;
        value           uniform (-5.55111512e-15 0 0);
    }
    left
    {
        type            calculated;
        value           uniform (0 0 0);
    }
    right
    {
        type            calculated;
        value           uniform (0 0 0);
    }
    bottom
    {
        type            calculated;
        value           uniform (0 0 0);
    }
    back0
    {
        type            empty;
    }
    front1
    {
        type            empty;
    }
}


// ************************************************************************* //
