/*--------------------------------*- C++ -*----------------------------------*\
| =========                 |                                                 |
| \\      /  F ield         | OpenFOAM: The Open Source CFD Toolbox           |
|  \\    /   O peration     | Version:  3.0.1                                 |
|   \\  /    A nd           | Web:      www.OpenFOAM.org                      |
|    \\/     M anipulation  |                                                 |
\*---------------------------------------------------------------------------*/
FoamFile
{
    version     2.0;
    format      ascii;
    class       volScalarField;
    location    "3";
    object      p;
}
// * * * * * * * * * * * * * * * * * * * * * * * * * * * * * * * * * * * * * //

dimensions      [0 2 -2 0 0 0 0];

internalField   nonuniform List<scalar> 
400
(
1.56160318e-05
-0.0581748856
-0.130464047
-0.186304622
-0.207265387
-0.185020899
-0.118942845
-0.0139417865
0.121299274
0.275663445
0.436651523
0.591282733
0.72695885
0.832400474
0.898759708
0.921026321
0.899843301
0.843673722
0.771159147
0.712971895
0.0576698687
-0.00211225243
-0.0588085154
-0.0973355591
-0.108531569
-0.0865449336
-0.0306310591
0.0556599264
0.165737839
0.290951595
0.421430381
0.546872161
0.657322907
0.743994632
0.800157334
0.822174302
0.810797008
0.77198667
0.715095673
0.655353965
0.134143905
0.0513381907
-0.0100325768
-0.0456249065
-0.0547601761
-0.0341963577
0.0160024422
0.0923828319
0.189152399
0.298885843
0.41314975
0.523141007
0.62033628
0.697160622
0.747664866
0.768291522
0.758970168
0.723050379
0.661428629
0.578654097
0.204816641
0.0902489831
0.0138954026
-0.0267212476
-0.0378483174
-0.018549359
0.0299020497
0.103408353
0.196118047
0.300955196
0.410053633
0.515238863
0.608532783
0.682669995
0.731593054
0.751054325
0.739745821
0.698714386
0.621978
0.50735271
0.253513218
0.105280653
0.0109495198
-0.0368349598
-0.0502435753
-0.0303932522
0.0200978342
0.096147602
0.191412913
0.29870442
0.410254118
0.518043679
0.614160932
0.69116765
0.742438753
0.76266651
0.749145474
0.700859212
0.605947128
0.457453904
0.268648827
0.0859478072
-0.0271733867
-0.0819049903
-0.0958416064
-0.0720682992
-0.0146949494
0.069939684
0.174677264
0.291879687
0.413542791
0.53146871
0.637466685
0.723569819
0.78223167
0.806775766
0.792917213
0.737636241
0.623672357
0.440348707
0.240196788
0.0218498702
-0.109785319
-0.169449981
-0.180303118
-0.147588814
-0.0771716768
0.0230654903
0.144883807
0.27996446
0.419859287
0.55598845
0.679663624
0.782134188
0.854631376
0.88877681
0.878395523
0.818232406
0.685441578
0.465901134
0.157384687
-0.0984595971
-0.247330615
-0.307978739
-0.310031757
-0.26145285
-0.170299279
-0.0463274252
0.100938248
0.262391991
0.429093817
0.592050116
0.742015804
0.869325625
0.963742914
1.01480181
1.01393573
0.953031181
0.802675114
0.544812764
0.00682559333
-0.289034306
-0.452557185
-0.507801483
-0.492703915
-0.418974276
-0.297516916
-0.140337312
0.0416309018
0.238549004
0.44113782
0.640171595
0.825991724
0.988049723
1.11447571
1.19227629
1.2097572
1.15482753
0.989546252
0.690565808
-0.229304922
-0.568112572
-0.741490248
-0.781375322
-0.737153193
-0.625906023
-0.462269647
-0.260878023
-0.0340501854
0.207926705
0.455855733
0.700742242
0.932932098
1.14126478
1.3122265
1.42985088
1.47833392
1.43985636
1.26463306
0.92134319
-0.575722121
-0.960183991
-1.13453655
-1.14346809
-1.05290418
-0.887664781
-0.667174814
-0.408955865
-0.12640674
0.170370358
0.473051592
0.773713446
1.06350497
1.33129344
1.56221398
1.73701537
1.83462266
1.82896436
1.65307727
1.26260976
-1.06816636
-1.49909309
-1.65783513
-1.61105984
-1.44923709
-1.20807366
-0.912788345
-0.583655924
-0.234331403
0.126423523
0.492443559
0.858202769
1.21696381
1.55881603
1.86839602
2.12328781
2.29605327
2.34904004
2.18979604
1.75141419
-1.76127584
-2.23295014
-2.34472784
-2.20254945
-1.93334351
-1.58728802
-1.19576183
-0.780731016
-0.354383655
0.0777645633
0.513614313
0.951944164
1.39008308
1.82132903
2.23163578
2.5965436
2.88185133
3.03457061
2.92451194
2.44448728
-2.74488805
-3.23204928
-3.23654433
-2.93505088
-2.50657943
-2.01827116
-1.50606678
-0.990674662
-0.479633789
0.0276902665
0.5358641
1.05047039
1.57556575
2.11068233
2.6464425
3.15946405
3.61045961
3.92850679
3.92979406
3.43486903
-4.1774705
-4.60037821
-4.37985798
-3.81685632
-3.15676422
-2.48069026
-1.82281839
-1.19617879
-0.59833768
-0.0184656361
0.557844313
1.14587215
1.75963712
2.40908489
3.09505878
3.80198794
4.49209037
5.0795464
5.31261372
4.88572692
-6.34323325
-6.48579971
-5.81650062
-4.83465136
-3.84762255
-2.93384401
-2.11032902
-1.37032001
-0.69335212
-0.053407164
0.577036065
1.22569238
1.91985026
2.68495525
3.54034878
4.49080335
5.51597689
6.53204148
7.22415824
7.08734622
-9.75187696
-9.07982563
-7.56452632
-5.94264021
-4.51406872
-3.31584625
-2.31971266
-1.47907786
-0.744411462
-0.0692691532
0.589465251
1.27360392
2.0261752
2.89337249
3.92418193
5.16415412
6.6391718
8.30660186
9.85896924
10.555782
-15.5433247
-12.6187483
-9.51835303
-6.9863409
-5.01738981
-3.52003988
-2.37790673
-1.47714962
-0.727270467
-0.05832403
0.587943229
1.26606745
2.03432006
2.96265258
4.14155559
5.68497295
7.70865879
10.2996224
13.4578417
16.4393338
-26.6989304
-17.2350973
-10.979196
-7.32482417
-4.90990491
-3.25997607
-2.11100703
-1.26487326
-0.591688869
-0.00634260412
0.554960868
1.14984111
1.84213568
2.71703708
3.90465855
5.60432801
8.08267083
11.8138374
18.1587968
27.725388
-45.3500263
-21.7256735
-10.5196139
-6.01119376
-3.66544329
-2.26805411
-1.38774194
-0.779792543
-0.311069396
0.0921422272
0.479146029
0.892779596
1.38229897
2.02123078
2.94240198
4.3919818
6.80871434
11.4142766
22.7343731
46.4739128
)
;

boundaryField
{
    top
    {
        type            zeroGradient;
    }
    left
    {
        type            zeroGradient;
    }
    right
    {
        type            zeroGradient;
    }
    bottom
    {
        type            zeroGradient;
    }
    back0
    {
        type            empty;
    }
    front1
    {
        type            empty;
    }
}


// ************************************************************************* //
