/*--------------------------------*- C++ -*----------------------------------*\
| =========                 |                                                 |
| \\      /  F ield         | OpenFOAM: The Open Source CFD Toolbox           |
|  \\    /   O peration     | Version:  3.0.0                                 |
|   \\  /    A nd           | Web:      www.OpenFOAM.org                      |
|    \\/     M anipulation  |                                                 |
\*---------------------------------------------------------------------------*/
FoamFile
{
    version     2.0;
    format      ascii;
    class       volScalarField;
    location    "3";
    object      p;
}
// * * * * * * * * * * * * * * * * * * * * * * * * * * * * * * * * * * * * * //

dimensions      [0 2 -2 0 0 0 0];

internalField   nonuniform List<scalar> 
400
(
1.5616e-05
-0.0581749
-0.130464
-0.186305
-0.207265
-0.185021
-0.118943
-0.0139418
0.121299
0.275663
0.436652
0.591283
0.726959
0.8324
0.89876
0.921026
0.899843
0.843674
0.771159
0.712972
0.0576699
-0.00211225
-0.0588085
-0.0973356
-0.108532
-0.0865449
-0.0306311
0.0556599
0.165738
0.290952
0.42143
0.546872
0.657323
0.743995
0.800157
0.822174
0.810797
0.771987
0.715096
0.655354
0.134144
0.0513382
-0.0100326
-0.0456249
-0.0547602
-0.0341964
0.0160024
0.0923828
0.189152
0.298886
0.41315
0.523141
0.620336
0.697161
0.747665
0.768292
0.75897
0.72305
0.661429
0.578654
0.204817
0.090249
0.0138954
-0.0267212
-0.0378483
-0.0185494
0.029902
0.103408
0.196118
0.300955
0.410054
0.515239
0.608533
0.68267
0.731593
0.751054
0.739746
0.698714
0.621978
0.507353
0.253513
0.105281
0.0109495
-0.036835
-0.0502436
-0.0303933
0.0200978
0.0961476
0.191413
0.298704
0.410254
0.518044
0.614161
0.691168
0.742439
0.762667
0.749145
0.700859
0.605947
0.457454
0.268649
0.0859478
-0.0271734
-0.081905
-0.0958416
-0.0720683
-0.0146949
0.0699397
0.174677
0.29188
0.413543
0.531469
0.637467
0.72357
0.782232
0.806776
0.792917
0.737636
0.623672
0.440349
0.240197
0.0218499
-0.109785
-0.16945
-0.180303
-0.147589
-0.0771717
0.0230655
0.144884
0.279964
0.419859
0.555988
0.679664
0.782134
0.854631
0.888777
0.878396
0.818232
0.685442
0.465901
0.157385
-0.0984596
-0.247331
-0.307979
-0.310032
-0.261453
-0.170299
-0.0463274
0.100938
0.262392
0.429094
0.59205
0.742016
0.869326
0.963743
1.0148
1.01394
0.953031
0.802675
0.544813
0.00682559
-0.289034
-0.452557
-0.507801
-0.492704
-0.418974
-0.297517
-0.140337
0.0416309
0.238549
0.441138
0.640172
0.825992
0.98805
1.11448
1.19228
1.20976
1.15483
0.989546
0.690566
-0.229305
-0.568113
-0.74149
-0.781375
-0.737153
-0.625906
-0.46227
-0.260878
-0.0340502
0.207927
0.455856
0.700742
0.932932
1.14126
1.31223
1.42985
1.47833
1.43986
1.26463
0.921343
-0.575722
-0.960184
-1.13454
-1.14347
-1.0529
-0.887665
-0.667175
-0.408956
-0.126407
0.17037
0.473052
0.773713
1.0635
1.33129
1.56221
1.73702
1.83462
1.82896
1.65308
1.26261
-1.06817
-1.49909
-1.65784
-1.61106
-1.44924
-1.20807
-0.912788
-0.583656
-0.234331
0.126424
0.492444
0.858203
1.21696
1.55882
1.8684
2.12329
2.29605
2.34904
2.1898
1.75141
-1.76128
-2.23295
-2.34473
-2.20255
-1.93334
-1.58729
-1.19576
-0.780731
-0.354384
0.0777646
0.513614
0.951944
1.39008
1.82133
2.23164
2.59654
2.88185
3.03457
2.92451
2.44449
-2.74489
-3.23205
-3.23654
-2.93505
-2.50658
-2.01827
-1.50607
-0.990675
-0.479634
0.0276903
0.535864
1.05047
1.57557
2.11068
2.64644
3.15946
3.61046
3.92851
3.92979
3.43487
-4.17747
-4.60038
-4.37986
-3.81686
-3.15676
-2.48069
-1.82282
-1.19618
-0.598338
-0.0184656
0.557844
1.14587
1.75964
2.40908
3.09506
3.80199
4.49209
5.07955
5.31261
4.88573
-6.34323
-6.4858
-5.8165
-4.83465
-3.84762
-2.93384
-2.11033
-1.37032
-0.693352
-0.0534072
0.577036
1.22569
1.91985
2.68496
3.54035
4.4908
5.51598
6.53204
7.22416
7.08735
-9.75188
-9.07983
-7.56453
-5.94264
-4.51407
-3.31585
-2.31971
-1.47908
-0.744411
-0.0692692
0.589465
1.2736
2.02618
2.89337
3.92418
5.16415
6.63917
8.3066
9.85897
10.5558
-15.5433
-12.6187
-9.51835
-6.98634
-5.01739
-3.52004
-2.37791
-1.47715
-0.72727
-0.058324
0.587943
1.26607
2.03432
2.96265
4.14156
5.68497
7.70866
10.2996
13.4578
16.4393
-26.6989
-17.2351
-10.9792
-7.32482
-4.9099
-3.25998
-2.11101
-1.26487
-0.591689
-0.0063426
0.554961
1.14984
1.84214
2.71704
3.90466
5.60433
8.08267
11.8138
18.1588
27.7254
-45.35
-21.7257
-10.5196
-6.01119
-3.66544
-2.26805
-1.38774
-0.779793
-0.311069
0.0921422
0.479146
0.89278
1.3823
2.02123
2.9424
4.39198
6.80871
11.4143
22.7344
46.4739
)
;

boundaryField
{
    top
    {
        type            zeroGradient;
    }
    left
    {
        type            zeroGradient;
    }
    right
    {
        type            zeroGradient;
    }
    bottom
    {
        type            zeroGradient;
    }
    back0
    {
        type            empty;
    }
    front1
    {
        type            empty;
    }
}


// ************************************************************************* //
