/*--------------------------------*- C++ -*----------------------------------*\
| =========                 |                                                 |
| \\      /  F ield         | OpenFOAM: The Open Source CFD Toolbox           |
|  \\    /   O peration     | Version:  3.0.1                                 |
|   \\  /    A nd           | Web:      www.OpenFOAM.org                      |
|    \\/     M anipulation  |                                                 |
\*---------------------------------------------------------------------------*/
FoamFile
{
    version     2.0;
    format      ascii;
    class       surfaceScalarField;
    location    "3";
    object      phi;
}
// * * * * * * * * * * * * * * * * * * * * * * * * * * * * * * * * * * * * * //

dimensions      [0 3 -1 0 0 0 0];

internalField   nonuniform List<scalar> 
760
(
1.48300058e-05
-1.48436845e-05
-2.0668758e-05
3.54988094e-05
-0.000112521842
9.18532312e-05
-0.00024461475
0.000132093084
-0.000396820196
0.000152205514
-0.000549709549
0.000152889213
-0.00068646707
0.000136757222
-0.000793772008
0.000107304678
-0.000862077187
6.83051733e-05
-0.000885638351
2.35614823e-05
-0.000862489394
-2.31484704e-05
-0.00079444641
-6.80426241e-05
-0.000687159058
-0.000107287357
-0.000550173215
-0.000136986224
-0.000396907677
-0.00015326606
-0.00024434255
-0.000152565457
-0.000112068999
-0.000132273479
-2.02878843e-05
-9.17806687e-05
1.49799489e-05
-3.52672482e-05
1.49803463e-05
-3.27966677e-05
1.79529971e-05
-0.000177273418
0.000179975467
-0.000430662859
0.000345242629
-0.000762838941
0.000464269295
-0.00113361834
0.000522985213
-0.00150161784
0.000520889017
-0.00182937271
0.000464512181
-0.00208620209
0.00036413386
-0.00224961361
0.000231716313
-0.00230590232
7.98499139e-05
-0.00225037894
-7.86717849e-05
-0.00208745841
-0.000230962744
-0.00183067133
-0.000364073882
-0.00150250414
-0.000465153058
-0.00113381123
-0.000521959016
-0.000762352206
-0.000524024896
-0.00042980648
-0.000464819748
-0.000176505372
-0.000345082121
-3.24532848e-05
-0.000179319293
-1.74724029e-05
-9.02053482e-05
0.000108158465
-0.00035289554
0.000442665547
-0.000760601861
0.000752948738
-0.0012672405
0.000970907827
-0.00181761922
0.0010733641
-0.00235581944
0.00105908967
-0.00283112945
0.000939822646
-0.0032017745
0.000734779059
-0.00343696494
0.000466906481
-0.00351787687
0.000160761302
-0.00343806524
-0.000158483857
-0.00320361291
-0.000465415076
-0.00283310512
-0.00073458118
-0.0023573038
-0.000940953662
-0.00181818849
-0.00106107382
-0.00126684654
-0.00107536684
-0.000759602254
-0.000972064524
-0.000351894793
-0.000752790205
-8.97165594e-05
-0.000441497854
-0.000107188597
-0.000142725417
0.000250884087
-0.000521155953
0.000821096101
-0.00107877777
0.00131057033
-0.00174927105
0.00164140079
-0.00246204302
0.00178613593
-0.0031489587
0.00174600559
-0.00374966773
0.00154053224
-0.00421508527
0.00120019715
-0.00450930169
0.000761123068
-0.00461045077
0.000261910009
-0.00451104016
-0.000257895137
-0.00421807612
-0.000758379632
-0.00375308539
-0.0011995719
-0.00315189522
-0.00154214325
-0.002463807
-0.00174916125
-0.00174963476
-0.00178953855
-0.0010780712
-0.00164362813
-0.000520126924
-0.00131073496
-0.000142137046
-0.000819488237
-0.000249325627
-0.000191108292
0.00044199255
-0.000682219152
0.00131220719
-0.00138732022
0.0020156714
-0.00221710375
0.00247118401
-0.00308417195
0.00265320369
-0.00390865332
0.00257048677
-0.00462240495
0.00225428414
-0.00517146483
0.00174925768
-0.00551708672
0.00110674561
-0.00563593981
0.000380763305
-0.00552002227
-0.000373813064
-0.00517665246
-0.00110175018
-0.0046286535
-0.00174757145
-0.0039145826
-0.00225621416
-0.00308860666
-0.00257513661
-0.00221943914
-0.00265870528
-0.00138772935
-0.0024753374
-0.000681573472
-0.00201689085
-0.000190525649
-0.00131053644
-0.000439851593
-0.000238305073
0.000680297612
-0.000842095663
0.00191599813
-0.00169514015
0.0028687162
-0.00268291765
0.0034589615
-0.00369984175
0.00367012737
-0.00465445488
0.00352509934
-0.00547225805
0.00307208705
-0.00609649882
0.00237349875
-0.00648763954
0.00149788709
-0.00662232774
0.000515452253
-0.00649254207
-0.000503598483
-0.00610533281
-0.00148895985
-0.0054832907
-0.00236961434
-0.00466558516
-0.00307392033
-0.0037091183
-0.0035316035
-0.00268907236
-0.00367875067
-0.00169797527
-0.00346643372
-0.000842533255
-0.00287233239
-0.000237931131
-0.00191513861
-0.000677783161
-0.000287378267
0.00096767564
-0.00100782338
0.0026364435
-0.00201201746
0.00387291079
-0.00315754804
0.00460449249
-0.00431950064
0.00483207993
-0.00539549652
0.00460109469
-0.00630668226
0.00398327211
-0.0069960955
0.00306291167
-0.00742581904
0.00192761097
-0.00757414404
0.000663778081
-0.00743359637
-0.000644145338
-0.0070103073
-0.00191224863
-0.00632488075
-0.00305504131
-0.00541459533
-0.00398420654
-0.00433643148
-0.00460976796
-0.00317000796
-0.00484517422
-0.00201911843
-0.00461732272
-0.00101037777
-0.00388107241
-0.000287535323
-0.00263798074
-0.000965318759
-0.000341212672
0.00130888798
-0.00118606943
0.00348130023
-0.00234617534
0.00503301709
-0.00364749868
0.00590581646
-0.00494510441
0.00612968613
-0.00612756511
0.00578355533
-0.00711505522
0.0049707616
-0.00785418385
0.00380203953
-0.00831193846
0.00238536522
-0.00847043792
0.000822277895
-0.00832350508
-0.00079107731
-0.0078755546
-0.00236019826
-0.00714294981
-0.00378764581
-0.00615769328
-0.00496946347
-0.0049729433
-0.0057945187
-0.00366927857
-0.00614883951
-0.00235988234
-0.00592671896
-0.00119212046
-0.00504883386
-0.00034235595
-0.00348774478
-0.00130767466
-0.000402662417
0.00171155019
-0.00138288372
0.00446152121
-0.00270314705
0.0063532804
-0.00415277747
0.00735544734
-0.00556708753
0.00754399694
-0.00682952839
0.00704599673
-0.00786487572
0.00600610885
-0.0086288901
0.00456605323
-0.00909798478
0.00285445906
-0.0092609957
0.000985288423
-0.00911404344
-0.000938029234
-0.00865885411
-0.00281538672
-0.00790464492
-0.00454185416
-0.00687352979
-0.0060005783
-0.00560910012
-0.00705894872
-0.00418713278
-0.00757080753
-0.00272616196
-0.00738769028
-0.00139412455
-0.00638087129
-0.000405385439
-0.00447648355
-0.00171305977
-0.000475110488
0.00218666081
-0.00160423021
0.00559064055
-0.00308522774
0.0078342775
-0.00466469041
0.00893490996
-0.00616057395
0.009039881
-0.00745844184
0.00834386545
-0.00849632055
0.00704398815
-0.00924694407
0.00531667667
-0.00970204049
0.00330955477
-0.0098607547
0.00114400177
-0.00972275572
-0.00107602863
-0.00928598376
-0.00325215837
-0.00854900059
-0.00527883649
-0.00751809663
-0.00703148147
-0.00621927665
-0.00835776842
-0.00471455764
-0.00907552686
-0.00312030264
-0.00898194588
-0.00162256011
-0.00787861421
-0.000480136995
-0.00561890663
-0.00219319639
-0.000563483487
0.00275014471
-0.0018569608
0.00688411771
-0.00349063235
0.00946794849
-0.00516238933
0.0106066664
-0.0066796656
0.0105571572
-0.00794251227
0.00960671272
-0.00891480733
0.00801628411
-0.00959640948
0.00599827945
-0.0100013146
0.00371445979
-0.0101429409
0.00128562739
-0.010025884
-0.00119308636
-0.00964324117
-0.00363480162
-0.00897918646
-0.00594289091
-0.00801729004
-0.00799337712
-0.00675563234
-0.00961942541
-0.00522944073
-0.0106017182
-0.00353999232
-0.0106713945
-0.00188425664
-0.00953435035
-0.000571636512
-0.006931527
-0.00276483271
-0.000675948146
0.00342609334
-0.00214982709
0.00835799687
-0.00391097473
0.0112290958
-0.00560625131
0.0123019423
-0.00704802764
0.011998933
-0.00817076133
0.0107294464
-0.00898119925
0.00882672266
-0.00951808175
0.00653516289
-0.0098246043
0.00402098299
-0.0099319369
0.00139295994
-0.0098507903
-0.00127423363
-0.00956873168
-0.00391686105
-0.00905248861
-0.00645913437
-0.00825621204
-0.00878965345
-0.00713822169
-0.0107374151
-0.00568945404
-0.0120504852
-0.00397535278
-0.0123854956
-0.00218751953
-0.0113221838
-0.00068808115
-0.00843096568
-0.00345291392
-0.00082664852
0.00425274209
-0.00249342074
0.0100247696
-0.00432418395
0.0130598593
-0.0059245954
0.0139023534
-0.00714291361
0.0132172504
-0.00797782206
0.0115643542
-0.00849943387
0.00934833442
-0.00879640171
0.00683213134
-0.00894570086
0.00417028305
-0.0089976465
0.00144490622
-0.00896948413
-0.00130239602
-0.00884345466
-0.00404289112
-0.00856804123
-0.00673454853
-0.00806387662
-0.00929381842
-0.0072386763
-0.0115626152
-0.00601823945
-0.0132709215
-0.00440132816
-0.0140024064
-0.00254175573
-0.013181756
-0.000843508619
-0.0101292129
-0.00429642277
-0.00103952346
0.00529226538
-0.00289549017
0.0118807368
-0.00467633766
0.0148407074
-0.00598720087
0.0152132169
-0.00676819843
0.0139982477
-0.0071221002
0.0119182552
-0.00720203336
0.00942826693
-0.00715181657
0.00678191447
-0.00708046906
0.00409893612
-0.00705437502
0.00141881304
-0.00709612659
-0.00126064384
-0.00718439453
-0.00395462316
-0.00725315074
-0.00666579283
-0.0071919901
-0.00935497968
-0.00685341957
-0.0119011861
-0.00607860082
-0.0140457401
-0.00475889046
-0.0153221163
-0.00295227274
-0.0149883733
-0.00106146501
-0.0120200205
-0.00535788798
-0.00135025197
0.00664251689
-0.00334025639
0.0138707414
-0.00483768106
0.0163381327
-0.00555404795
0.0159295846
-0.00561056874
0.0140547688
-0.00525650295
0.0115641891
-0.00473591682
0.00890768006
-0.00423859856
0.00628459557
-0.00389222454
0.00375256199
-0.00376902883
0.00129561784
-0.00389327269
-0.0011363992
-0.00424393193
-0.00360396336
-0.00475113496
-0.00615858976
-0.00528768988
-0.00881842516
-0.00566131418
-0.0115275622
-0.00562172876
-0.0140853258
-0.00491056674
-0.0160332782
-0.00339873243
-0.0165002073
-0.00137654966
-0.0140422031
-0.00673443769
-0.00179037842
0.00843289486
-0.00371836178
0.0157987245
-0.00450183573
0.0171216069
-0.00418179655
0.0156095461
-0.0031745162
0.0130474891
-0.00189546659
0.0102851398
-0.000655569531
0.00766778272
0.00034429518
0.00528473019
0.000987447662
0.00310940891
0.00121449982
0.00106856555
0.00100600273
-0.000927901703
0.000376740895
-0.00297470087
-0.000618093813
-0.00516375456
-0.00186474314
-0.00757177576
-0.00316256879
-0.0102297369
-0.00419629328
-0.0130516017
-0.00454020615
-0.0156893655
-0.00376394197
-0.0172764714
-0.00181751158
-0.0159886332
-0.00855194918
-0.00230764274
0.0107405375
-0.00363211792
0.0171231991
-0.0029744243
0.016463913
-0.00106889404
0.013704016
0.00129962232
0.0106789734
0.00360817701
0.00797658581
0.00556237838
0.00571358169
0.00701811563
0.00382899272
0.00791404654
0.00221347742
0.00822761902
0.000754992531
0.00795212793
-0.000652410748
0.00708964841
-0.00211222104
0.0056578661
-0.00373197171
0.00371317416
-0.00562708342
0.00139571634
-0.00791227898
-0.00100056609
-0.0106553194
-0.00294595443
-0.0137439774
-0.00363940859
-0.0165830174
-0.00232572298
-0.0173023188
-0.010877672
-0.00251428279
0.0132548205
-0.00191886152
0.0165277775
0.00123204939
0.0133130015
0.00516960671
0.00976645837
0.00890995196
0.00693862837
0.0120477008
0.00483883753
0.0144621922
0.00329909094
0.0161533076
0.00213787764
0.0171566125
0.00121017234
0.0175035782
0.000408026353
0.0172053077
-0.000354140706
0.0162480106
-0.001154924
0.0145966906
-0.00208065153
0.012210738
-0.00324113038
0.00908363915
-0.0047851798
0.00532950031
-0.00690118049
0.00135184665
-0.00976632386
-0.00185633303
-0.0133748378
-0.00250263369
-0.0166560181
-0.0133803056
-0.000525870166
0.0137806912
0.00469116579
0.0113107415
0.0111379059
0.00686626102
0.0167191967
0.00418516711
0.021043761
0.00261406373
0.0242217881
0.00166081054
0.0264601189
0.00106076054
0.0279395594
0.000658437595
0.0287868705
0.000362861507
0.0290749924
0.000119904381
0.0288276842
-0.000106832765
0.028021358
-0.000348598031
0.0265824978
-0.000641791494
0.0243820564
-0.00104068881
0.0212339726
-0.00163709573
0.0169223245
-0.00258953223
0.0113261641
-0.00417016337
0.0048312408
-0.00687991457
-0.000460418991
-0.0113643584
-0.0138407246
0.0137806917
0.0250914336
0.0319576949
0.0361428619
0.0387569253
0.0404177354
0.0414784957
0.0421369335
0.0424997954
0.0426197001
0.0425128675
0.0421642694
0.0415224776
0.0404817886
0.0388446928
0.0362551607
0.0320849975
0.025205083
0.0138407246
)
;

boundaryField
{
    top
    {
        type            calculated;
        value           uniform 0;
    }
    left
    {
        type            calculated;
        value           uniform 0;
    }
    right
    {
        type            calculated;
        value           uniform 0;
    }
    bottom
    {
        type            calculated;
        value           uniform 0;
    }
    back0
    {
        type            empty;
        value           nonuniform 0();
    }
    front1
    {
        type            empty;
        value           nonuniform 0();
    }
}


// ************************************************************************* //
