/*--------------------------------*- C++ -*----------------------------------*\
| =========                 |                                                 |
| \\      /  F ield         | OpenFOAM: The Open Source CFD Toolbox           |
|  \\    /   O peration     | Version:  3.0.1                                 |
|   \\  /    A nd           | Web:      www.OpenFOAM.org                      |
|    \\/     M anipulation  |                                                 |
\*---------------------------------------------------------------------------*/
FoamFile
{
    version     2.0;
    format      ascii;
    class       volVectorField;
    location    "3";
    object      U;
}
// * * * * * * * * * * * * * * * * * * * * * * * * * * * * * * * * * * * * * //

dimensions      [0 1 -1 0 0 0 0];

internalField   nonuniform List<vector> 
400
(
(0.000259049696 -0.000255114194 0)
(0.000163193913 0.00010348847 0)
(-0.00114129509 0.000562922084 0)
(-0.00345164053 0.000892677771 0)
(-0.00637456783 0.0010597557 0)
(-0.00950138152 0.00107585679 0)
(-0.012462449 0.000965759973 0)
(-0.0149528222 0.00075848585 0)
(-0.0167424785 0.000482990325 0)
(-0.0176781186 0.000166944173 0)
(-0.0176825175 -0.000162987207 0)
(-0.0167540728 -0.000480341815 0)
(-0.0149673915 -0.000757973354 0)
(-0.0124747348 -0.000967401278 0)
(-0.00950714403 -0.00107880707 0)
(-0.00637237794 -0.00106259401 0)
(-0.00344363027 -0.000894001268 0)
(-0.00113224083 -0.000562113732 0)
(0.00016878625 -0.000101402665 0)
(0.00026055613 0.000256263886 0)
(-6.36564637e-05 -0.000192814844 0)
(-0.0015637945 0.00161122573 0)
(-0.00562133502 0.00360995041 0)
(-0.0116624288 0.00506517543 0)
(-0.0188876987 0.00579892654 0)
(-0.0264616886 0.00581605534 0)
(-0.0335808372 0.00520264039 0)
(-0.0395528838 0.00408407851 0)
(-0.0438411329 0.00260080345 0)
(-0.0460817216 0.000897214715 0)
(-0.0460899862 -0.000881772058 0)
(-0.0438629616 -0.00259069118 0)
(-0.039580452 -0.00408266166 0)
(-0.0336043403 -0.00520998175 0)
(-0.0264730964 -0.00582871216 0)
(-0.0188840494 -0.00581112663 0)
(-0.0116472936 -0.00507121856 0)
(-0.00560340558 -0.00360722104 0)
(-0.00155191639 -0.00160272134 0)
(-6.01352152e-05 0.000198542852 0)
(-0.000508066988 0.00103300268 0)
(-0.00364517324 0.00566229138 0)
(-0.0104977919 0.0102120564 0)
(-0.0199305239 0.0134777776 0)
(-0.0307793583 0.0150698466 0)
(-0.0419250097 0.0149606044 0)
(-0.0522861844 0.0133219549 0)
(-0.0609227919 0.0104364006 0)
(-0.0671017809 0.00663926025 0)
(-0.0703241092 0.00228747725 0)
(-0.0703359476 -0.00225412674 0)
(-0.0671333924 -0.00661750974 0)
(-0.0609637815 -0.0104336393 0)
(-0.0523232416 -0.013338474 0)
(-0.0419466765 -0.0149891017 0)
(-0.0307804228 -0.0150978544 0)
(-0.019914373 -0.0134927182 0)
(-0.01047532 -0.0102076228 0)
(-0.00362890049 -0.00564387782 0)
(-0.000502885472 -0.00101878759 0)
(-0.000901530632 0.00337413473 0)
(-0.00561472247 0.0121026902 0)
(-0.0152160342 0.0199185547 0)
(-0.0278960329 0.0253348512 0)
(-0.0420806619 0.0278175182 0)
(-0.0563930991 0.0273454204 0)
(-0.0695396397 0.0242145183 0)
(-0.0804104984 0.0189084468 0)
(-0.0881486886 0.0120071386 0)
(-0.0921742164 0.00413332096 0)
(-0.0921927245 -0.00407342945 0)
(-0.0881990196 -0.0119670839 0)
(-0.0804786173 -0.0189011661 0)
(-0.0696069398 -0.0242412088 0)
(-0.0564423216 -0.0273944619 0)
(-0.0421017834 -0.0278680965 0)
(-0.0278901498 -0.0253649982 0)
(-0.0151953125 -0.0199157383 0)
(-0.00559611532 -0.0120735455 0)
(-0.000894873527 -0.00334870226 0)
(-0.00124878199 0.00671913611 0)
(-0.00746753825 0.0208066794 0)
(-0.0197752653 0.0325561502 0)
(-0.0356414826 0.0403582973 0)
(-0.0530356868 0.0436522662 0)
(-0.0703148276 0.0425094297 0)
(-0.0859995428 0.0374148008 0)
(-0.0988570113 0.0291035697 0)
(-0.107956649 0.0184400324 0)
(-0.11267827 0.00634466581 0)
(-0.112709208 -0.00624107346 0)
(-0.108042232 -0.0183675591 0)
(-0.0989773778 -0.0290832471 0)
(-0.0861273558 -0.0374502476 0)
(-0.0704227753 -0.0425846737 0)
(-0.0531045823 -0.0437362432 0)
(-0.0356666306 -0.0404160514 0)
(-0.019768421 -0.0325646033 0)
(-0.00745105145 -0.0207705782 0)
(-0.00124126922 -0.00668126171 0)
(-0.0015801767 0.0110106922 0)
(-0.00929263873 0.0317466068 0)
(-0.0243212579 0.048128903 0)
(-0.0433743931 0.0585360531 0)
(-0.0639230315 0.06251126 0)
(-0.084044952 0.0603351301 0)
(-0.102093626 0.0527734106 0)
(-0.116751957 0.0408774819 0)
(-0.127060258 0.0258362125 0)
(-0.132395298 0.0088890947 0)
(-0.132446576 -0.00871107182 0)
(-0.127203916 -0.0257054135 0)
(-0.116959604 -0.0408271955 0)
(-0.102324859 -0.0528124291 0)
(-0.0842568198 -0.0604436628 0)
(-0.064081132 -0.0626456845 0)
(-0.0434628891 -0.0586432838 0)
(-0.0243482544 -0.0481684465 0)
(-0.0092863537 -0.0317151739 0)
(-0.00157322447 -0.0109621152 0)
(-0.00192626071 0.016255069 0)
(-0.0111929082 0.0449648546 0)
(-0.0290279076 0.0666850199 0)
(-0.0513080634 0.0798755857 0)
(-0.0749610832 0.0843338569 0)
(-0.097782289 0.0806969558 0)
(-0.117988305 0.0701286144 0)
(-0.134227493 0.0540740456 0)
(-0.145564335 0.0340861105 0)
(-0.151415627 0.0117325376 0)
(-0.151496512 -0.0114321813 0)
(-0.145793042 -0.0338557755 0)
(-0.13456456 -0.0539652783 0)
(-0.118375866 -0.0701597892 0)
(-0.0981555829 -0.0808461335 0)
(-0.0752630835 -0.0845426676 0)
(-0.051504391 -0.0800662847 0)
(-0.0291175754 -0.0667897436 0)
(-0.0112092854 -0.0449617433 0)
(-0.00192231337 -0.0162027139 0)
(-0.00231586848 0.0225188855 0)
(-0.0132686193 0.0605807166 0)
(-0.034056986 0.0883110836 0)
(-0.0596048768 0.104368551 0)
(-0.0862453015 0.108997317 0)
(-0.111508518 0.103380043 0)
(-0.13353311 0.0892237647 0)
(-0.151009571 0.0684555349 0)
(-0.163100873 0.0430258889 0)
(-0.169320791 0.0148224186 0)
(-0.169440516 -0.0143329537 0)
(-0.163441906 -0.0426374066 0)
(-0.151519871 -0.0682455521 0)
(-0.134134143 -0.0892266323 0)
(-0.112108177 -0.103575269 0)
(-0.0867560142 -0.10931071 0)
(-0.0599644204 -0.104690494 0)
(-0.0342470642 -0.0885331186 0)
(-0.0133249287 -0.0606460647 0)
(-0.00231859131 -0.0224774416 0)
(-0.00277919545 0.0299257481 0)
(-0.015619233 0.0787852761 0)
(-0.039545776 0.113109754 0)
(-0.0683430338 0.131941963 0)
(-0.0976948806 0.136245338 0)
(-0.12492047 0.127998126 0)
(-0.148185633 0.109628231 0)
(-0.166341062 0.0836380078 0)
(-0.178753051 0.0523950444 0)
(-0.185108346 0.0180718771 0)
(-0.185273822 -0.0173092914 0)
(-0.17922755 -0.0517729574 0)
(-0.167060687 -0.0832686596 0)
(-0.149050924 -0.109570396 0)
(-0.125809061 -0.128239209 0)
(-0.0984818566 -0.136696936 0)
(-0.0689278887 -0.132456226 0)
(-0.0398814906 -0.113521701 0)
(-0.0157375932 -0.0789798333 0)
(-0.00279365563 -0.0299204513 0)
(-0.00335558638 0.0386598248 0)
(-0.0183589891 0.0998286242 0)
(-0.0456106495 0.141149 0)
(-0.0774898495 0.162368228 0)
(-0.108991007 0.165574068 0)
(-0.137340479 0.153875597 0)
(-0.160905734 0.130632482 0)
(-0.178870095 0.0990104107 0)
(-0.190943374 0.0617852037 0)
(-0.197080765 0.0213406269 0)
(-0.197293207 -0.0202106532 0)
(-0.191556685 -0.0608422075 0)
(-0.179812913 -0.098409682 0)
(-0.162062651 -0.130467253 0)
(-0.138561427 -0.154151357 0)
(-0.110110867 -0.166194676 0)
(-0.0783600726 -0.163144864 0)
(-0.0461409243 -0.141843439 0)
(-0.0185657617 -0.100236636 0)
(-0.00338841077 -0.0387292518 0)
(-0.00410768931 0.0489852909 0)
(-0.021644995 0.124008514 0)
(-0.0523542009 0.172385464 0)
(-0.0868591342 0.195134294 0)
(-0.119481322 0.196079173 0)
(-0.1475839 0.179902915 0)
(-0.170007083 0.151130519 0)
(-0.186501469 0.113650938 0)
(-0.197291772 0.0705900661 0)
(-0.202708787 0.0244160466 0)
(-0.202959327 -0.0228287304 0)
(-0.198020715 -0.0692386119 0)
(-0.187639353 -0.112739112 0)
(-0.171435202 -0.150796258 0)
(-0.149136083 -0.180184116 0)
(-0.120957496 -0.196885886 0)
(-0.0880571939 -0.196241906 0)
(-0.0531240561 -0.173469178 0)
(-0.0219690755 -0.124737849 0)
(-0.00416716637 -0.0491838276 0)
(-0.00514671893 0.0612936548 0)
(-0.0257192127 0.151656863 0)
(-0.059857326 0.206540855 0)
(-0.0960163541 0.229247353 0)
(-0.128010545 0.226252063 0)
(-0.153752949 0.204366565 0)
(-0.17295079 0.169499918 0)
(-0.186211837 0.126253695 0)
(-0.194456673 0.0779668226 0)
(-0.198488967 0.0269985593 0)
(-0.198753973 -0.0248921159 0)
(-0.195235532 -0.0761392903 0)
(-0.187451795 -0.124956365 0)
(-0.17455173 -0.16892318 0)
(-0.155556655 -0.204598295 0)
(-0.12980073 -0.227232064 0)
(-0.0975421197 -0.230734034 0)
(-0.0608942971 -0.208120374 0)
(-0.0261884398 -0.152833976 0)
(-0.00524278182 -0.0616930984 0)
(-0.00667695458 0.0761991925 0)
(-0.0309618078 0.183102314 0)
(-0.0681131681 0.24288128 0)
(-0.104061114 0.2629373 0)
(-0.132609116 0.25371373 0)
(-0.152911319 0.224767311 0)
(-0.166064279 0.183506311 0)
(-0.173836902 0.135093406 0)
(-0.177984694 0.0828291869 0)
(-0.17983022 0.0286992338 0)
(-0.180068006 -0.0260728559 0)
(-0.178694665 -0.0805072319 0)
(-0.175001634 -0.133363404 0)
(-0.167632228 -0.182612021 0)
(-0.154769968 -0.224863992 0)
(-0.134563336 -0.254804104 0)
(-0.105835093 -0.264801056 0)
(-0.0694045836 -0.245035409 0)
(-0.0315959962 -0.18485817 0)
(-0.00682084328 -0.0768885803 0)
(-0.00906576526 0.0947026442 0)
(-0.0379246463 0.218538328 0)
(-0.0767913822 0.279804164 0)
(-0.109143727 0.293208664 0)
(-0.129924722 0.274900159 0)
(-0.140578598 0.237679779 0)
(-0.144175986 0.190296539 0)
(-0.14385823 0.138083675 0)
(-0.142218398 0.0839087364 0)
(-0.141028905 0.0290636803 0)
(-0.141180987 -0.0260145561 0)
(-0.14268943 -0.0811589808 0)
(-0.144683427 -0.135932448 0)
(-0.145383993 -0.189029524 0)
(-0.142149476 -0.237529635 0)
(-0.131741774 -0.275969876 0)
(-0.110959044 -0.295359025 0)
(-0.0782481851 -0.282539182 0)
(-0.0387218119 -0.220978848 0)
(-0.0092685195 -0.0957839743 0)
(-0.0129065004 0.118408545 0)
(-0.0471897067 0.257615175 0)
(-0.0845412852 0.314085573 0)
(-0.107433023 0.3152368 0)
(-0.114222039 0.284803032 0)
(-0.109987073 0.238796054 0)
(-0.100191608 0.186611099 0)
(-0.0892602757 0.133024639 0)
(-0.0803513489 0.0799415676 0)
(-0.075427673 0.0276432437 0)
(-0.0754289764 -0.0243954546 0)
(-0.0803895484 -0.0769480912 0)
(-0.089429888 -0.130558977 0)
(-0.100620781 -0.184972285 0)
(-0.110789499 -0.238285716 0)
(-0.115426946 -0.285651534 0)
(-0.108905911 -0.317458335 0)
(-0.0859441557 -0.317272944 0)
(-0.0480970314 -0.260766778 0)
(-0.0131729801 -0.11998248 0)
(-0.0188565055 0.149839413 0)
(-0.0584939968 0.298411269 0)
(-0.0871238353 0.339552572 0)
(-0.0910298065 0.321660367 0)
(-0.0757519586 0.276980951 0)
(-0.0511223621 0.22338474 0)
(-0.0247385348 0.169390582 0)
(-0.0016121129 0.118146567 0)
(0.0152214263 0.0700342586 0)
(0.0241045194 0.0241323155 0)
(0.0243022943 -0.0210356762 0)
(0.0157673069 -0.0671084029 0)
(-0.000856601101 -0.115596935 0)
(-0.0239879983 -0.167483979 0)
(-0.0506315545 -0.222453476 0)
(-0.075744067 -0.277375537 0)
(-0.0915838418 -0.323604378 0)
(-0.088057992 -0.342864159 0)
(-0.0593476803 -0.302137065 0)
(-0.0191649203 -0.151974068 0)
(-0.0264625439 0.19317119 0)
(-0.0677000407 0.335014322 0)
(-0.0729896268 0.344651856 0)
(-0.0441148033 0.301756056 0)
(0.00159042859 0.244051749 0)
(0.0502178757 0.187354312 0)
(0.0938180535 0.136864128 0)
(0.128367544 0.092959522 0)
(0.152066823 0.0541905768 0)
(0.164225576 0.0185620128 0)
(0.164617872 -0.0160354663 0)
(0.153198332 -0.0517325227 0)
(0.130098914 -0.0906764462 0)
(0.0959095924 -0.134939068 0)
(0.0523327172 -0.186079798 0)
(0.00333419862 -0.243831946 0)
(-0.0430904962 -0.303013981 0)
(-0.0728279165 -0.347547203 0)
(-0.0681295118 -0.338913011 0)
(-0.0267083266 -0.195840586 0)
(-0.0289527541 0.251331307 0)
(-0.058103607 0.350741892 0)
(-0.0140170756 0.309539068 0)
(0.0632657897 0.242400604 0)
(0.142946953 0.180310327 0)
(0.212723816 0.129919443 0)
(0.268472778 0.090592561 0)
(0.309449331 0.0595774575 0)
(0.336245832 0.034034588 0)
(0.349654594 0.0115487723 0)
(0.350147693 -0.00995156024 0)
(0.337700432 -0.032423639 0)
(0.311782813 -0.0579641604 0)
(0.271519281 -0.0890461133 0)
(0.216198155 -0.128613179 0)
(0.146424037 -0.179576159 0)
(0.0662122535 -0.242735899 0)
(-0.0121382492 -0.311417369 0)
(-0.0574832366 -0.354042304 0)
(-0.0288312484 -0.254177676 0)
(0.0132195596 0.289507488 0)
(0.0296816927 0.302854551 0)
(0.154179696 0.214068806 0)
(0.282833702 0.142345222 0)
(0.382969598 0.0939486721 0)
(0.457130854 0.061962456 0)
(0.51050249 0.0405509477 0)
(0.547090517 0.0255474079 0)
(0.569959929 0.0142061084 0)
(0.581116179 0.00473811685 0)
(0.581523403 -0.00414301442 0)
(0.571184989 -0.0135724673 0)
(0.549136892 -0.0248412644 0)
(0.513349852 -0.0397538511 0)
(0.460686704 -0.0611006439 0)
(0.387005995 -0.0931595589 0)
(0.286924356 -0.14196963 0)
(0.15762611 -0.214616957 0)
(0.0318291835 -0.304532302 0)
(0.0142600285 -0.291324499 0)
(0.304245121 0.147454743 0)
(0.405563376 0.127829551 0)
(0.569531344 0.0747834978 0)
(0.686121678 0.0418385761 0)
(0.753522531 0.023842975 0)
(0.794598208 0.0139302406 0)
(0.820887683 0.00829802403 0)
(0.837586478 0.0048889315 0)
(0.847522292 0.00260052606 0)
(0.852223006 0.000835243487 0)
(0.852350812 -0.000772310329 0)
(0.847917609 -0.00252075538 0)
(0.838285536 -0.00477209115 0)
(0.821949448 -0.00811771405 0)
(0.796091297 -0.0136558001 0)
(0.75550285 -0.0234583765 0)
(0.688596478 -0.0413908881 0)
(0.572194812 -0.0744403312 0)
(0.407524201 -0.127868561 0)
(0.305169545 -0.147795834 0)
)
;

boundaryField
{
    top
    {
        type            fixedValue;
        value           uniform (1 0 0);
    }
    left
    {
        type            fixedValue;
        value           uniform (0 0 0);
    }
    right
    {
        type            fixedValue;
        value           uniform (0 0 0);
    }
    bottom
    {
        type            fixedValue;
        value           uniform (0 0 0);
    }
    back0
    {
        type            empty;
    }
    front1
    {
        type            empty;
    }
}


// ************************************************************************* //
