/*--------------------------------*- C++ -*----------------------------------*\
| =========                 |                                                 |
| \\      /  F ield         | OpenFOAM: The Open Source CFD Toolbox           |
|  \\    /   O peration     | Version:  3.0.0                                 |
|   \\  /    A nd           | Web:      www.OpenFOAM.org                      |
|    \\/     M anipulation  |                                                 |
\*---------------------------------------------------------------------------*/
FoamFile
{
    version     2.0;
    format      ascii;
    class       volVectorField;
    location    "3";
    object      U;
}
// * * * * * * * * * * * * * * * * * * * * * * * * * * * * * * * * * * * * * //

dimensions      [0 1 -1 0 0 0 0];

internalField   nonuniform List<vector> 
400
(
(0.00025905 -0.000255114 0)
(0.000163194 0.000103488 0)
(-0.0011413 0.000562922 0)
(-0.00345164 0.000892678 0)
(-0.00637457 0.00105976 0)
(-0.00950138 0.00107586 0)
(-0.0124624 0.00096576 0)
(-0.0149528 0.000758486 0)
(-0.0167425 0.00048299 0)
(-0.0176781 0.000166944 0)
(-0.0176825 -0.000162987 0)
(-0.0167541 -0.000480342 0)
(-0.0149674 -0.000757973 0)
(-0.0124747 -0.000967401 0)
(-0.00950714 -0.00107881 0)
(-0.00637238 -0.00106259 0)
(-0.00344363 -0.000894001 0)
(-0.00113224 -0.000562114 0)
(0.000168786 -0.000101403 0)
(0.000260556 0.000256264 0)
(-6.36565e-05 -0.000192815 0)
(-0.00156379 0.00161123 0)
(-0.00562134 0.00360995 0)
(-0.0116624 0.00506518 0)
(-0.0188877 0.00579893 0)
(-0.0264617 0.00581606 0)
(-0.0335808 0.00520264 0)
(-0.0395529 0.00408408 0)
(-0.0438411 0.0026008 0)
(-0.0460817 0.000897215 0)
(-0.04609 -0.000881772 0)
(-0.043863 -0.00259069 0)
(-0.0395805 -0.00408266 0)
(-0.0336043 -0.00520998 0)
(-0.0264731 -0.00582871 0)
(-0.018884 -0.00581113 0)
(-0.0116473 -0.00507122 0)
(-0.00560341 -0.00360722 0)
(-0.00155192 -0.00160272 0)
(-6.01352e-05 0.000198543 0)
(-0.000508067 0.001033 0)
(-0.00364517 0.00566229 0)
(-0.0104978 0.0102121 0)
(-0.0199305 0.0134778 0)
(-0.0307794 0.0150698 0)
(-0.041925 0.0149606 0)
(-0.0522862 0.013322 0)
(-0.0609228 0.0104364 0)
(-0.0671018 0.00663926 0)
(-0.0703241 0.00228748 0)
(-0.0703359 -0.00225413 0)
(-0.0671334 -0.00661751 0)
(-0.0609638 -0.0104336 0)
(-0.0523232 -0.0133385 0)
(-0.0419467 -0.0149891 0)
(-0.0307804 -0.0150979 0)
(-0.0199144 -0.0134927 0)
(-0.0104753 -0.0102076 0)
(-0.0036289 -0.00564388 0)
(-0.000502885 -0.00101879 0)
(-0.000901531 0.00337413 0)
(-0.00561472 0.0121027 0)
(-0.015216 0.0199186 0)
(-0.027896 0.0253349 0)
(-0.0420807 0.0278175 0)
(-0.0563931 0.0273454 0)
(-0.0695396 0.0242145 0)
(-0.0804105 0.0189084 0)
(-0.0881487 0.0120071 0)
(-0.0921742 0.00413332 0)
(-0.0921927 -0.00407343 0)
(-0.088199 -0.0119671 0)
(-0.0804786 -0.0189012 0)
(-0.0696069 -0.0242412 0)
(-0.0564423 -0.0273945 0)
(-0.0421018 -0.0278681 0)
(-0.0278901 -0.025365 0)
(-0.0151953 -0.0199157 0)
(-0.00559612 -0.0120735 0)
(-0.000894874 -0.0033487 0)
(-0.00124878 0.00671914 0)
(-0.00746754 0.0208067 0)
(-0.0197753 0.0325562 0)
(-0.0356415 0.0403583 0)
(-0.0530357 0.0436523 0)
(-0.0703148 0.0425094 0)
(-0.0859995 0.0374148 0)
(-0.098857 0.0291036 0)
(-0.107957 0.01844 0)
(-0.112678 0.00634467 0)
(-0.112709 -0.00624107 0)
(-0.108042 -0.0183676 0)
(-0.0989774 -0.0290832 0)
(-0.0861274 -0.0374502 0)
(-0.0704228 -0.0425847 0)
(-0.0531046 -0.0437362 0)
(-0.0356666 -0.0404161 0)
(-0.0197684 -0.0325646 0)
(-0.00745105 -0.0207706 0)
(-0.00124127 -0.00668126 0)
(-0.00158018 0.0110107 0)
(-0.00929264 0.0317466 0)
(-0.0243213 0.0481289 0)
(-0.0433744 0.0585361 0)
(-0.063923 0.0625113 0)
(-0.084045 0.0603351 0)
(-0.102094 0.0527734 0)
(-0.116752 0.0408775 0)
(-0.12706 0.0258362 0)
(-0.132395 0.00888909 0)
(-0.132447 -0.00871107 0)
(-0.127204 -0.0257054 0)
(-0.11696 -0.0408272 0)
(-0.102325 -0.0528124 0)
(-0.0842568 -0.0604437 0)
(-0.0640811 -0.0626457 0)
(-0.0434629 -0.0586433 0)
(-0.0243483 -0.0481684 0)
(-0.00928635 -0.0317152 0)
(-0.00157322 -0.0109621 0)
(-0.00192626 0.0162551 0)
(-0.0111929 0.0449649 0)
(-0.0290279 0.066685 0)
(-0.0513081 0.0798756 0)
(-0.0749611 0.0843339 0)
(-0.0977823 0.080697 0)
(-0.117988 0.0701286 0)
(-0.134227 0.054074 0)
(-0.145564 0.0340861 0)
(-0.151416 0.0117325 0)
(-0.151497 -0.0114322 0)
(-0.145793 -0.0338558 0)
(-0.134565 -0.0539653 0)
(-0.118376 -0.0701598 0)
(-0.0981556 -0.0808461 0)
(-0.0752631 -0.0845427 0)
(-0.0515044 -0.0800663 0)
(-0.0291176 -0.0667897 0)
(-0.0112093 -0.0449617 0)
(-0.00192231 -0.0162027 0)
(-0.00231587 0.0225189 0)
(-0.0132686 0.0605807 0)
(-0.034057 0.0883111 0)
(-0.0596049 0.104369 0)
(-0.0862453 0.108997 0)
(-0.111509 0.10338 0)
(-0.133533 0.0892238 0)
(-0.15101 0.0684555 0)
(-0.163101 0.0430259 0)
(-0.169321 0.0148224 0)
(-0.169441 -0.014333 0)
(-0.163442 -0.0426374 0)
(-0.15152 -0.0682456 0)
(-0.134134 -0.0892266 0)
(-0.112108 -0.103575 0)
(-0.086756 -0.109311 0)
(-0.0599644 -0.10469 0)
(-0.0342471 -0.0885331 0)
(-0.0133249 -0.0606461 0)
(-0.00231859 -0.0224774 0)
(-0.0027792 0.0299257 0)
(-0.0156192 0.0787853 0)
(-0.0395458 0.11311 0)
(-0.068343 0.131942 0)
(-0.0976949 0.136245 0)
(-0.12492 0.127998 0)
(-0.148186 0.109628 0)
(-0.166341 0.083638 0)
(-0.178753 0.052395 0)
(-0.185108 0.0180719 0)
(-0.185274 -0.0173093 0)
(-0.179228 -0.051773 0)
(-0.167061 -0.0832687 0)
(-0.149051 -0.10957 0)
(-0.125809 -0.128239 0)
(-0.0984819 -0.136697 0)
(-0.0689279 -0.132456 0)
(-0.0398815 -0.113522 0)
(-0.0157376 -0.0789798 0)
(-0.00279366 -0.0299205 0)
(-0.00335559 0.0386598 0)
(-0.018359 0.0998286 0)
(-0.0456106 0.141149 0)
(-0.0774898 0.162368 0)
(-0.108991 0.165574 0)
(-0.13734 0.153876 0)
(-0.160906 0.130632 0)
(-0.17887 0.0990104 0)
(-0.190943 0.0617852 0)
(-0.197081 0.0213406 0)
(-0.197293 -0.0202107 0)
(-0.191557 -0.0608422 0)
(-0.179813 -0.0984097 0)
(-0.162063 -0.130467 0)
(-0.138561 -0.154151 0)
(-0.110111 -0.166195 0)
(-0.0783601 -0.163145 0)
(-0.0461409 -0.141843 0)
(-0.0185658 -0.100237 0)
(-0.00338841 -0.0387293 0)
(-0.00410769 0.0489853 0)
(-0.021645 0.124009 0)
(-0.0523542 0.172385 0)
(-0.0868591 0.195134 0)
(-0.119481 0.196079 0)
(-0.147584 0.179903 0)
(-0.170007 0.151131 0)
(-0.186501 0.113651 0)
(-0.197292 0.0705901 0)
(-0.202709 0.024416 0)
(-0.202959 -0.0228287 0)
(-0.198021 -0.0692386 0)
(-0.187639 -0.112739 0)
(-0.171435 -0.150796 0)
(-0.149136 -0.180184 0)
(-0.120957 -0.196886 0)
(-0.0880572 -0.196242 0)
(-0.0531241 -0.173469 0)
(-0.0219691 -0.124738 0)
(-0.00416717 -0.0491838 0)
(-0.00514672 0.0612937 0)
(-0.0257192 0.151657 0)
(-0.0598573 0.206541 0)
(-0.0960164 0.229247 0)
(-0.128011 0.226252 0)
(-0.153753 0.204367 0)
(-0.172951 0.1695 0)
(-0.186212 0.126254 0)
(-0.194457 0.0779668 0)
(-0.198489 0.0269986 0)
(-0.198754 -0.0248921 0)
(-0.195236 -0.0761393 0)
(-0.187452 -0.124956 0)
(-0.174552 -0.168923 0)
(-0.155557 -0.204598 0)
(-0.129801 -0.227232 0)
(-0.0975421 -0.230734 0)
(-0.0608943 -0.20812 0)
(-0.0261884 -0.152834 0)
(-0.00524278 -0.0616931 0)
(-0.00667695 0.0761992 0)
(-0.0309618 0.183102 0)
(-0.0681132 0.242881 0)
(-0.104061 0.262937 0)
(-0.132609 0.253714 0)
(-0.152911 0.224767 0)
(-0.166064 0.183506 0)
(-0.173837 0.135093 0)
(-0.177985 0.0828292 0)
(-0.17983 0.0286992 0)
(-0.180068 -0.0260729 0)
(-0.178695 -0.0805072 0)
(-0.175002 -0.133363 0)
(-0.167632 -0.182612 0)
(-0.15477 -0.224864 0)
(-0.134563 -0.254804 0)
(-0.105835 -0.264801 0)
(-0.0694046 -0.245035 0)
(-0.031596 -0.184858 0)
(-0.00682084 -0.0768886 0)
(-0.00906577 0.0947026 0)
(-0.0379246 0.218538 0)
(-0.0767914 0.279804 0)
(-0.109144 0.293209 0)
(-0.129925 0.2749 0)
(-0.140579 0.23768 0)
(-0.144176 0.190297 0)
(-0.143858 0.138084 0)
(-0.142218 0.0839087 0)
(-0.141029 0.0290637 0)
(-0.141181 -0.0260146 0)
(-0.142689 -0.081159 0)
(-0.144683 -0.135932 0)
(-0.145384 -0.18903 0)
(-0.142149 -0.23753 0)
(-0.131742 -0.27597 0)
(-0.110959 -0.295359 0)
(-0.0782482 -0.282539 0)
(-0.0387218 -0.220979 0)
(-0.00926852 -0.095784 0)
(-0.0129065 0.118409 0)
(-0.0471897 0.257615 0)
(-0.0845413 0.314086 0)
(-0.107433 0.315237 0)
(-0.114222 0.284803 0)
(-0.109987 0.238796 0)
(-0.100192 0.186611 0)
(-0.0892603 0.133025 0)
(-0.0803513 0.0799416 0)
(-0.0754277 0.0276432 0)
(-0.075429 -0.0243955 0)
(-0.0803895 -0.0769481 0)
(-0.0894299 -0.130559 0)
(-0.100621 -0.184972 0)
(-0.110789 -0.238286 0)
(-0.115427 -0.285652 0)
(-0.108906 -0.317458 0)
(-0.0859442 -0.317273 0)
(-0.048097 -0.260767 0)
(-0.013173 -0.119982 0)
(-0.0188565 0.149839 0)
(-0.058494 0.298411 0)
(-0.0871238 0.339553 0)
(-0.0910298 0.32166 0)
(-0.075752 0.276981 0)
(-0.0511224 0.223385 0)
(-0.0247385 0.169391 0)
(-0.00161211 0.118147 0)
(0.0152214 0.0700343 0)
(0.0241045 0.0241323 0)
(0.0243023 -0.0210357 0)
(0.0157673 -0.0671084 0)
(-0.000856601 -0.115597 0)
(-0.023988 -0.167484 0)
(-0.0506316 -0.222453 0)
(-0.0757441 -0.277376 0)
(-0.0915838 -0.323604 0)
(-0.088058 -0.342864 0)
(-0.0593477 -0.302137 0)
(-0.0191649 -0.151974 0)
(-0.0264625 0.193171 0)
(-0.0677 0.335014 0)
(-0.0729896 0.344652 0)
(-0.0441148 0.301756 0)
(0.00159043 0.244052 0)
(0.0502179 0.187354 0)
(0.0938181 0.136864 0)
(0.128368 0.0929595 0)
(0.152067 0.0541906 0)
(0.164226 0.018562 0)
(0.164618 -0.0160355 0)
(0.153198 -0.0517325 0)
(0.130099 -0.0906764 0)
(0.0959096 -0.134939 0)
(0.0523327 -0.18608 0)
(0.0033342 -0.243832 0)
(-0.0430905 -0.303014 0)
(-0.0728279 -0.347547 0)
(-0.0681295 -0.338913 0)
(-0.0267083 -0.195841 0)
(-0.0289528 0.251331 0)
(-0.0581036 0.350742 0)
(-0.0140171 0.309539 0)
(0.0632658 0.242401 0)
(0.142947 0.18031 0)
(0.212724 0.129919 0)
(0.268473 0.0905926 0)
(0.309449 0.0595775 0)
(0.336246 0.0340346 0)
(0.349655 0.0115488 0)
(0.350148 -0.00995156 0)
(0.3377 -0.0324236 0)
(0.311783 -0.0579642 0)
(0.271519 -0.0890461 0)
(0.216198 -0.128613 0)
(0.146424 -0.179576 0)
(0.0662123 -0.242736 0)
(-0.0121382 -0.311417 0)
(-0.0574832 -0.354042 0)
(-0.0288312 -0.254178 0)
(0.0132196 0.289507 0)
(0.0296817 0.302855 0)
(0.15418 0.214069 0)
(0.282834 0.142345 0)
(0.38297 0.0939487 0)
(0.457131 0.0619625 0)
(0.510502 0.0405509 0)
(0.547091 0.0255474 0)
(0.56996 0.0142061 0)
(0.581116 0.00473812 0)
(0.581523 -0.00414301 0)
(0.571185 -0.0135725 0)
(0.549137 -0.0248413 0)
(0.51335 -0.0397539 0)
(0.460687 -0.0611006 0)
(0.387006 -0.0931596 0)
(0.286924 -0.14197 0)
(0.157626 -0.214617 0)
(0.0318292 -0.304532 0)
(0.01426 -0.291324 0)
(0.304245 0.147455 0)
(0.405563 0.12783 0)
(0.569531 0.0747835 0)
(0.686122 0.0418386 0)
(0.753523 0.023843 0)
(0.794598 0.0139302 0)
(0.820888 0.00829802 0)
(0.837586 0.00488893 0)
(0.847522 0.00260053 0)
(0.852223 0.000835243 0)
(0.852351 -0.00077231 0)
(0.847918 -0.00252076 0)
(0.838286 -0.00477209 0)
(0.821949 -0.00811771 0)
(0.796091 -0.0136558 0)
(0.755503 -0.0234584 0)
(0.688596 -0.0413909 0)
(0.572195 -0.0744403 0)
(0.407524 -0.127869 0)
(0.30517 -0.147796 0)
)
;

boundaryField
{
    top
    {
        type            fixedValue;
        value           uniform (1 0 0);
    }
    left
    {
        type            fixedValue;
        value           uniform (0 0 0);
    }
    right
    {
        type            fixedValue;
        value           uniform (0 0 0);
    }
    bottom
    {
        type            fixedValue;
        value           uniform (0 0 0);
    }
    back0
    {
        type            empty;
    }
    front1
    {
        type            empty;
    }
}


// ************************************************************************* //
