/*--------------------------------*- C++ -*----------------------------------*\
| =========                 |                                                 |
| \\      /  F ield         | OpenFOAM: The Open Source CFD Toolbox           |
|  \\    /   O peration     | Version:  3.0.1                                 |
|   \\  /    A nd           | Web:      www.OpenFOAM.org                      |
|    \\/     M anipulation  |                                                 |
\*---------------------------------------------------------------------------*/
FoamFile
{
    version     2.0;
    format      ascii;
    class       volScalarField;
    location    "1";
    object      magVorticity;
}
// * * * * * * * * * * * * * * * * * * * * * * * * * * * * * * * * * * * * * //

dimensions      [0 0 -1 0 0 0 0];

internalField   nonuniform List<scalar> 
400
(
0.00347017376
0.0221874133
0.0755186257
0.156108891
0.254453858
0.358689708
0.457257676
0.540227474
0.599918488
0.631136258
0.631249848
0.60021836
0.540606023
0.457580922
0.358849288
0.254411422
0.155913405
0.0752820748
0.0220149159
0.00355279177
0.0218540937
0.0761110575
0.128104246
0.186678166
0.25155601
0.318272452
0.380916358
0.433679882
0.471722781
0.491632465
0.491653557
0.471782693
0.433769526
0.381023273
0.318382792
0.251654519
0.186745834
0.128115316
0.0760342512
0.0216762576
0.075330764
0.132299139
0.174101274
0.210913347
0.246757242
0.281834452
0.314345174
0.341748321
0.361585396
0.371990124
0.371976554
0.36156451
0.341771101
0.314470508
0.282097641
0.247140435
0.211330214
0.174406902
0.132329914
0.0749739432
0.162174501
0.203666982
0.22509559
0.236098593
0.242668471
0.247867788
0.252763558
0.257268189
0.260797267
0.262735801
0.262728427
0.260810868
0.25739448
0.253107859
0.248491681
0.243535695
0.237045533
0.225844869
0.203891243
0.161605916
0.282043469
0.295148254
0.28656757
0.265744188
0.239934742
0.214143897
0.19148156
0.173667417
0.161527334
0.155400513
0.155417014
0.16162789
0.173983483
0.192165201
0.215285026
0.241479427
0.267443249
0.287983404
0.295734946
0.281301079
0.434346279
0.408434562
0.36041998
0.300488897
0.237244721
0.177296579
0.125312031
0.084334084
0.0561944925
0.0419023553
0.0419295755
0.0563483397
0.084802889
0.126321295
0.178995967
0.239588792
0.303149538
0.362771823
0.409644559
0.433582032
0.619554317
0.544057877
0.446463637
0.338792829
0.231436652
0.132584102
0.048167192
0.017846968
0.063006682
0.08592555
0.085941296
0.062948831
0.017435574
0.04928571
0.134685652
0.234547561
0.342544205
0.450032628
0.546254725
0.619096522
0.839523275
0.702183631
0.543056037
0.377211757
0.21745337
0.073647519
0.047269883
0.140840589
0.204441118
0.236658145
0.236822058
0.204778032
0.140928525
0.046544691
0.075695204
0.221035946
0.382010631
0.548082506
0.705838334
0.839946473
1.09750518
0.882742045
0.647102487
0.410205356
0.188019334
0.00784997
0.169872688
0.293723743
0.377232948
0.419440053
0.419917889
0.378442579
0.295041105
0.170418195
0.00673145
0.191378979
0.415708672
0.653701555
0.888419184
1.09969887
1.39816713
1.08514761
0.753479262
0.429411506
0.132938832
0.12277994
0.330434932
0.486865607
0.591307052
0.643950342
0.644969489
0.594055087
0.490460727
0.333571574
0.12400241
0.134822043
0.434805263
0.761506948
1.09345498
1.40339176
1.74784709
1.30760222
0.853723543
0.422201959
0.03788231
0.28536022
0.54206678
0.731984005
0.857212374
0.92010215
0.921935125
0.862311785
0.739184581
0.54955686
0.29094239
0.03632147
0.425987385
0.862573312
1.31907859
1.75775827
2.15519562
1.54563845
0.933493574
0.369131671
0.1175293
0.51424578
0.82055449
1.04197374
1.18561882
1.2573715
1.26028815
1.19389968
1.05421321
0.8344468
0.52674852
0.12529834
0.368895699
0.94180488
1.56054034
2.17180539
2.63220347
1.78887367
0.96768946
0.239597948
0.36255764
0.83381647
1.18448519
1.43030486
1.58632159
1.66361796
1.66779143
1.59836362
1.4487291
1.20668134
0.85599139
0.37995972
0.231855951
0.97296682
1.80680051
2.65772293
3.19470341
2.01329283
0.910983626
0.01532133
0.73915938
1.2752778
1.65468631
1.90964239
2.06653116
2.14325597
2.14861449
2.08222784
1.93442099
1.68608491
1.30920733
0.76965752
0.03498521
0.90919662
2.03256112
3.23114792
3.85814324
2.16246266
0.679539931
0.473965074
1.30613512
1.87648127
2.25208781
2.48915527
2.62821072
2.69470285
2.70074455
2.64620111
2.51850897
2.29122646
1.92197125
1.35170326
0.509966539
0.665012842
2.17916222
3.90645527
4.61806638
2.10223404
0.116973624
1.25889897
2.14088126
2.67795321
2.99247809
3.16984095
3.2643236
3.30723111
3.31287493
3.28149075
3.19904329
3.03386887
2.73013774
2.19912073
1.31304089
0.08351
2.10922485
4.67646391
5.38281718
1.51090211
1.06365094
2.54895768
3.33100714
3.71033846
3.87606137
3.93735021
3.95421935
3.95776134
3.9613995
3.96574124
3.95845984
3.90910665
3.75722632
3.39102339
2.61511412
1.1181884
1.49842109
5.44419875
5.62391085
0.39174017
3.35510671
4.56177314
4.93860407
4.96630828
4.87026511
4.7528104
4.65921888
4.60876851
4.60878043
4.65999354
4.75660547
4.88089367
4.98884115
4.97794591
4.61856129
3.41760488
0.427190463
5.67251602
2.59164168
5.39105692
7.44057794
7.42976087
6.90958431
6.35272225
5.88830085
5.54482136
5.32085917
5.20917707
5.20513877
5.30915593
5.52684259
5.86689679
6.3329896
6.89947887
7.43841689
7.46895778
5.41715004
2.61856001
14.0725102
16.3742619
13.6227997
10.819852
8.91416292
7.63816007
6.77651289
6.21020693
5.86571687
5.70033891
5.69482024
5.84897407
6.18174726
6.73584569
7.58562785
8.8522633
10.7546117
13.5665678
16.3400213
14.0490603
)
;

boundaryField
{
    top
    {
        type            calculated;
        value           nonuniform List<scalar> 
20
(
25.0773522
24.5041775
18.0786564
13.0645388
10.138183
8.3715224
7.2549073
6.55351784
6.13964755
5.94481082
5.93953023
6.12329598
6.52455031
7.21086084
8.30975597
10.0572377
12.9659609
17.9769844
24.432587
25.0365742
)
;
    }
    left
    {
        type            calculated;
        value           nonuniform List<scalar> 
20
(
0.0121592449
4.36493e-05
0.0496975955
0.142371557
0.275550661
0.447200815
0.657557651
0.909282505
1.20742473
1.55967551
1.97732049
2.47743636
3.0871558
3.85039921
4.83424773
6.12913619
7.82780988
9.6564314
8.24832096
10.9271634
)
;
    }
    right
    {
        type            calculated;
        value           nonuniform List<scalar> 
20
(
0.0122546988
0.00030709621
0.0490990354
0.141331762
0.274033262
0.445293685
0.655560286
0.907808787
1.20751381
1.56290277
1.98589448
2.49425846
3.11579849
3.89487851
4.89826179
6.21431528
7.93028629
9.75742338
8.31297205
10.8938709
)
;
    }
    bottom
    {
        type            calculated;
        value           nonuniform List<scalar> 
20
(
0.0118774053
0.00165485618
0.0535446654
0.143034063
0.256814054
0.379114327
0.495322702
0.593283076
0.66378118
0.70066225
0.700825255
0.66421081
0.593823235
0.495779572
0.3793326
0.256742162
0.142749266
0.0532151943
0.00143219723
0.011970793
)
;
    }
    back0
    {
        type            empty;
    }
    front1
    {
        type            empty;
    }
}


// ************************************************************************* //
