/*--------------------------------*- C++ -*----------------------------------*\
| =========                 |                                                 |
| \\      /  F ield         | OpenFOAM: The Open Source CFD Toolbox           |
|  \\    /   O peration     | Version:  3.0.1                                 |
|   \\  /    A nd           | Web:      www.OpenFOAM.org                      |
|    \\/     M anipulation  |                                                 |
\*---------------------------------------------------------------------------*/
FoamFile
{
    version     2.0;
    format      ascii;
    class       volScalarField;
    location    "1";
    object      p;
}
// * * * * * * * * * * * * * * * * * * * * * * * * * * * * * * * * * * * * * //

dimensions      [0 2 -2 0 0 0 0];

internalField   nonuniform List<scalar> 
400
(
2.27404778e-05
-0.0581624119
-0.13045028
-0.18629054
-0.207250989
-0.185006104
-0.118927719
-0.0139266516
0.121313929
0.275677239
0.436664443
0.591295182
0.726971411
0.832413549
0.898773282
0.921040013
0.899856656
0.843686512
0.771171497
0.712984053
0.057681943
-0.00209899547
-0.0587947614
-0.0973216842
-0.108517707
-0.0865310125
-0.0306168873
0.055674438
0.165752501
0.290965982
0.42144409
0.546885096
0.657335387
0.744007216
0.800170486
0.822188122
0.810811194
0.772000718
0.715109209
0.655366801
0.1341567
0.0513515179
-0.0100187803
-0.0456109252
-0.0547463444
-0.0341828033
0.0160159119
0.0923965794
0.189166642
0.298900418
0.413164164
0.523154752
0.620349201
0.697173067
0.747677492
0.768304884
0.758984371
0.723065014
0.661443112
0.578667981
0.204829191
0.0902620547
0.0139090861
-0.0267071373
-0.0378341957
-0.0185356278
0.0299153115
0.10342148
0.196131554
0.300969373
0.410068278
0.515253376
0.608546574
0.682682915
0.731605535
0.751067111
0.739759477
0.698728923
0.621992983
0.507367631
0.253525681
0.105293422
0.0109628441
-0.0368210012
-0.0502292206
-0.0303790253
0.0201114763
0.0961606291
0.191425784
0.298717769
0.41026828
0.518058413
0.614175564
0.691181548
0.742451791
0.762679173
0.749158527
0.700873172
0.605962012
0.45746941
0.268661531
0.0859604717
-0.0271604829
-0.0818915105
-0.0958274126
-0.0720537178
-0.0146806158
0.0699532657
0.174690113
0.291892371
0.413556041
0.531482888
0.637481515
0.723584574
0.782245705
0.806788988
0.792930144
0.73764964
0.623686726
0.440364134
0.24020997
0.0218627933
-0.109772573
-0.16943704
-0.180289506
-0.147574406
-0.0771568889
0.023079928
0.144897358
0.279977195
0.419871863
0.55600166
0.679677834
0.782149082
0.854646207
0.888790961
0.878408957
0.818245676
0.685455398
0.465915953
0.15739832
-0.0984461178
-0.247317553
-0.307965985
-0.310018797
-0.261439136
-0.170284697
-0.0463124662
0.100952781
0.262405547
0.42910651
0.592062663
0.742029018
0.86933985
0.963757808
1.01481664
1.01394996
0.953044825
0.80268869
0.544826839
0.00683939908
-0.28902026
-0.45254343
-0.507788328
-0.492691178
-0.418961329
-0.297503141
-0.140322606
0.0416459855
0.238563614
0.441151409
0.640184311
0.826004306
0.988062965
1.11448992
1.19229111
1.20977195
1.15484174
0.989559967
0.690579393
-0.229291247
-0.568098259
-0.741475807
-0.78136134
-0.737139997
-0.625893335
-0.462256733
-0.26086422
-0.0340354098
0.207941856
0.455870391
0.700755878
0.932944886
1.14127744
1.31223978
1.42986502
1.47834857
1.43987089
1.26464708
0.921356682
-0.575708636
-0.960169813
-1.13452184
-1.14345335
-1.05289007
-0.887651589
-0.667162177
-0.408942983
-0.126392934
0.170385145
0.473066743
0.77372811
1.06351866
1.33130633
1.56222675
1.73702867
1.83463666
1.82897871
1.65309143
1.26262339
-1.06815277
-1.49907925
-1.65782071
-1.6110449
-1.4492222
-1.20805949
-0.91277516
-0.583643309
-0.234318533
0.126437312
0.492458299
0.858217851
1.21697843
1.55882975
1.86840901
2.12330068
2.29606654
2.34905381
2.18980999
1.75142789
-1.7612617
-2.2329365
-2.34471402
-2.202535
-1.9333285
-1.58727307
-1.19574764
-0.780717818
-0.354371016
0.0777774549
0.513628077
0.951958811
1.39009804
1.82134355
2.23164949
2.59655667
2.88186424
3.0345838
2.92452543
2.44450078
-2.74487308
-3.23203542
-3.23653096
-2.93503725
-2.50656506
-2.01825618
-1.50605185
-0.99066047
-0.479620545
0.0277029887
0.535877056
1.05048413
1.57558027
2.1106971
2.64645689
3.15947771
3.6104727
3.92851972
3.92980709
3.43488212
-4.17745487
-4.60036379
-4.37984455
-3.81684326
-3.15675079
-2.48067602
-1.82280352
-1.19616394
-0.598323495
-0.0184523035
0.557857181
1.14588522
1.75965086
2.40909928
3.09507335
3.80200214
4.49210395
5.07955949
5.31262657
4.88573964
-6.34321755
-6.48578474
-5.81648666
-4.83463826
-3.84760974
-2.93383077
-2.11031496
-1.37030531
-0.693337378
-0.0533929724
0.577049534
1.22570545
1.91986349
2.68496902
3.54036304
4.4908177
5.5159909
6.53205495
7.22417123
7.08735881
-9.7518619
-9.07981053
-7.56451177
-5.94262655
-4.51405586
-3.31583361
-2.31969955
-1.47906395
-0.744396918
-0.0692545138
0.589479472
1.27361756
2.02618853
2.89338593
3.92419577
5.16416828
6.63918596
8.30661569
9.85898256
10.5557948
-15.5433107
-12.6187337
-9.51833836
-6.98632671
-5.01737642
-3.52002714
-2.37789411
-1.47713654
-0.727256653
-0.0583096237
0.587957789
1.26608175
2.03433396
2.96266624
4.14156931
5.6849869
7.70867289
10.2996364
13.4578554
16.439347
-26.6989175
-17.2350836
-10.9791819
-7.32481
-4.90989112
-3.25996288
-2.11099431
-1.26486061
-0.591675794
-0.00632884446
0.554975229
1.14985573
1.84215022
2.71705136
3.90467263
5.60434205
8.08268491
11.8138515
18.1588107
27.7254016
-45.350014
-21.725661
-10.5196009
-6.01118031
-3.66542963
-2.26804064
-1.38772892
-0.779779911
-0.311056768
0.092155336
0.479159921
0.892794227
1.38231401
2.02124583
2.94241678
4.3919963
6.80872861
11.4142907
22.734387
46.4739265
)
;

boundaryField
{
    top
    {
        type            zeroGradient;
    }
    left
    {
        type            zeroGradient;
    }
    right
    {
        type            zeroGradient;
    }
    bottom
    {
        type            zeroGradient;
    }
    back0
    {
        type            empty;
    }
    front1
    {
        type            empty;
    }
}


// ************************************************************************* //
