/*--------------------------------*- C++ -*----------------------------------*\
| =========                 |                                                 |
| \\      /  F ield         | OpenFOAM: The Open Source CFD Toolbox           |
|  \\    /   O peration     | Version:  3.0.1                                 |
|   \\  /    A nd           | Web:      www.OpenFOAM.org                      |
|    \\/     M anipulation  |                                                 |
\*---------------------------------------------------------------------------*/
FoamFile
{
    version     2.0;
    format      ascii;
    class       surfaceScalarField;
    location    "1";
    object      phi;
}
// * * * * * * * * * * * * * * * * * * * * * * * * * * * * * * * * * * * * * //

dimensions      [0 3 -1 0 0 0 0];

internalField   nonuniform List<scalar> 
760
(
1.48268229e-05
-1.48467475e-05
-2.06701768e-05
3.54970122e-05
-0.000112522265
9.18520837e-05
-0.00024461445
0.000132092189
-0.00039681927
0.000152204866
-0.000549707978
0.000152888809
-0.00068646481
0.000136756951
-0.000793769107
0.000107304373
-0.00086207386
6.83047442e-05
-0.000885634949
2.35610117e-05
-0.000862486274
-2.3148749e-05
-0.000794443796
-6.80424731e-05
-0.000687156979
-0.000107286707
-0.000550171566
-0.000136985248
-0.000396906346
-0.000153265098
-0.000244341511
-0.000152564831
-0.000112068298
-0.000132273328
-2.02875486e-05
-9.17809033e-05
1.49800229e-05
-3.5267648e-05
1.49800969e-05
-3.27982396e-05
1.79515057e-05
-0.000177274409
0.000179973283
-0.000430662503
0.000345240268
-0.000762837062
0.000464266817
-0.00113361498
0.000522982818
-0.00150161309
0.000520886945
-0.00182936665
0.000464510565
-0.00208619486
0.000364132681
-0.00224960547
0.000231715477
-0.00230589373
7.98493902e-05
-0.00225037053
-7.8671884e-05
-0.0020874508
-0.000230962212
-0.00183066498
-0.000364072576
-0.00150249921
-0.000465151057
-0.00113380764
-0.000521956657
-0.000762349737
-0.000524022663
-0.00042980488
-0.000464818068
-0.000176504424
-0.000345081213
-3.24527504e-05
-0.000179319139
-1.74727099e-05
-9.02058812e-05
0.000108157382
-0.000352895508
0.000442662974
-0.0007606003
0.00075294512
-0.00126723692
0.00097090349
-0.00181761353
0.00107335948
-0.00235581182
0.00105908528
-0.00283112019
0.000939818988
-0.00320176386
0.000734776433
-0.00343695324
0.000466904947
-0.00351786455
0.000160760777
-0.00343805293
-0.000158483452
-0.00320360142
-0.000465413724
-0.00283309519
-0.000734578812
-0.00235729593
-0.000940950312
-0.00181818277
-0.00106106977
-0.00126684273
-0.00107536263
-0.000759599895
-0.000972060827
-0.000351893429
-0.000752787595
-8.97158152e-05
-0.00044149663
-0.000107188631
-0.000142725436
0.00025088282
-0.000521155164
0.000821092724
-0.00107877526
0.00131056526
-0.0017492662
0.00164139447
-0.00246203561
0.00178612894
-0.00314894893
0.00174599865
-0.00374965605
0.00154052616
-0.00421507218
0.00120019262
-0.00450928763
0.000761120472
-0.00461043616
0.000261909375
-0.00451102553
-0.00025789402
-0.0042180622
-0.000758377025
-0.00375307301
-0.00119956799
-0.00315188511
-0.0015421382
-0.00246379952
-0.00174915532
-0.00174962982
-0.00178953227
-0.00107806828
-0.00164362227
-0.000520125409
-0.00131073037
-0.000142136363
-0.000819485566
-0.000249325059
-0.000191107933
0.000441990792
-0.000682217845
0.00131220262
-0.00138731717
0.0020156646
-0.0022170983
0.00247117564
-0.00308416374
0.00265319443
-0.00390864246
0.00257047743
-0.00462239194
0.00225427568
-0.00517145035
0.00174925108
-0.00551707145
0.00110674162
-0.00563592426
0.000380762247
-0.00552000689
-0.000373811328
-0.00517663775
-0.0011017461
-0.00462864012
-0.00174756558
-0.00391457132
-0.00225620699
-0.00308859804
-0.00257512857
-0.00221943334
-0.00265869693
-0.00138772605
-0.00247532949
-0.000681571981
-0.00201688434
-0.000190525208
-0.00131053223
-0.000439850234
-0.000238304431
0.000680295305
-0.000842094012
0.00191599217
-0.0016951369
0.00286870751
-0.00268291224
0.00345895102
-0.00369983376
0.00367011599
-0.00465444421
0.00352508794
-0.00547224508
0.0030720766
-0.00609648427
0.00237349031
-0.00648762427
0.00149788166
-0.00662231246
0.000515450477
-0.00649252725
-0.000503596479
-0.00610531879
-0.0014889545
-0.00548327786
-0.00236960644
-0.00466557403
-0.00307391077
-0.00370910947
-0.0035315931
-0.0026890662
-0.00367874017
-0.00169797173
-0.00346642391
-0.0008425318
-0.0028723242
-0.000237930923
-0.00191513303
-0.000677781035
-0.000287377521
0.000967672911
-0.00100782159
0.00263643625
-0.00201201429
0.00387290023
-0.00315754315
0.00460447992
-0.00431949368
0.00483206656
-0.00539548726
0.00460108158
-0.00630667081
0.00398326021
-0.00699608239
0.00306290195
-0.00742580513
0.00192760444
-0.00757413017
0.000663775562
-0.00743358318
-0.000644143426
-0.00701029512
-0.0019122425
-0.00632486972
-0.00305503176
-0.00541458567
-0.00398419475
-0.00433642354
-0.00460975517
-0.00317000214
-0.00484516153
-0.00201911493
-0.0046173111
-0.00101037631
-0.00388106279
-0.000287535188
-0.0026379741
-0.000965316078
-0.000341212072
0.00130888502
-0.00118606781
0.00348129205
-0.00234617255
0.00503300503
-0.00364749465
0.00590580207
-0.00494509902
0.00612967097
-0.00612755815
0.00578354075
-0.00711504656
0.00497074867
-0.00785417368
0.00380202913
-0.00831192734
0.00238535816
-0.00847042668
0.000822274949
-0.00832349446
-0.000791075604
-0.00787554506
-0.00236019186
-0.00714294145
-0.0037876353
-0.00615768606
-0.00496945007
-0.00497293725
-0.0057945039
-0.0036692739
-0.00614882482
-0.0023598793
-0.00592670567
-0.00119211903
-0.00504882303
-0.000342355717
-0.00348773739
-0.0013076717
-0.00040266218
0.00171154715
-0.00138288264
0.00446151262
-0.00270314504
0.00635326751
-0.00415277464
0.00735543174
-0.00556708404
0.00754398041
-0.0068295242
0.00704598095
-0.00786487064
0.00600609516
-0.00862888399
0.00456604253
-0.00909797778
0.00285445201
-0.00926098831
0.000985285538
-0.00911403632
-0.000938027542
-0.00865884783
-0.00281538031
-0.0079046397
-0.00454184339
-0.00687352553
-0.00600056417
-0.00560909661
-0.00705893274
-0.00418712993
-0.00757079142
-0.00272615988
-0.00738767567
-0.00139412338
-0.0063808595
-0.000405385065
-0.00447647567
-0.00171305676
-0.000475110676
0.00218665773
-0.00160422995
0.00559063202
-0.00308522693
0.00783426457
-0.00466468918
0.00893489407
-0.00616057259
0.00903986389
-0.00745844056
0.00834384897
-0.00849631929
0.00704397392
-0.00924694255
0.00531666584
-0.00970203845
0.00330954797
-0.00986075214
0.0011439993
-0.00972275298
-0.00107602664
-0.00928598129
-0.00325215194
-0.00854899875
-0.00527882589
-0.00751809543
-0.00703146744
-0.00621927584
-0.00835775226
-0.00471455694
-0.00907551024
-0.00312030192
-0.0089819306
-0.00162255949
-0.00787860187
-0.000480136609
-0.00561889848
-0.00219319343
-0.000563483963
0.00275014163
-0.00185696143
0.00688410957
-0.00349063302
0.00946793622
-0.00516239007
0.0106066512
-0.00667966664
0.0105571405
-0.00794251393
0.00960669633
-0.00891480974
0.00801626978
-0.00959641243
0.00599826858
-0.0100013176
0.00371445321
-0.0101429436
0.00128562535
-0.0100258862
-0.00119308397
-0.009643243
-0.00363479509
-0.00897918819
-0.00594288066
-0.00801729182
-0.00799336376
-0.00675563406
-0.00961940997
-0.00522944211
-0.0106017021
-0.0035399931
-0.0106713795
-0.00188425681
-0.00953433807
-0.00057163633
-0.00693151887
-0.00276482981
-0.000675948663
0.00342609032
-0.00214982841
0.00835798935
-0.00391097686
0.0112290847
-0.00560625417
0.0123019285
-0.00704803126
0.0119989177
-0.00817076591
0.0107294311
-0.00898120501
0.00882670895
-0.00951808865
0.00653515227
-0.00982461192
0.00402097653
-0.0099319446
0.00139295807
-0.00985079746
-0.00127423104
-0.00956873796
-0.00391685452
-0.009052494
-0.00645912455
-0.00825621666
-0.00878964105
-0.00713822561
-0.010737401
-0.00568945715
-0.0120504705
-0.00397535486
-0.0123854817
-0.00218752054
-0.0113221723
-0.000688081326
-0.008430958
-0.00345291115
-0.000826648883
0.00425273934
-0.00249342241
0.0100247629
-0.0043241872
0.0130598495
-0.00592460017
0.0139023415
-0.00714291972
0.0132172373
-0.00797782945
0.0115643409
-0.00849944262
0.0093483222
-0.00879641184
0.00683212155
-0.0089457121
0.00417027684
-0.00899765824
0.00144490425
-0.00896949554
-0.00130239369
-0.00884346501
-0.00404288499
-0.00856805009
-0.0067345394
-0.0080638839
-0.00929380717
-0.00723868209
-0.0115626027
-0.00601824385
-0.0132709088
-0.00440133116
-0.0140023944
-0.00254175737
-0.013181746
-0.000843509149
-0.0101292062
-0.00429642025
-0.00103952365
0.00529226318
-0.00289549188
0.0118807312
-0.00467634147
0.0148406992
-0.00598720692
0.015213207
-0.0067682065
0.0139982369
-0.00712210996
0.0119182444
-0.00720204461
0.00942825693
-0.00715182919
0.00678190621
-0.00708048285
0.00409893056
-0.0070543895
0.00141881096
-0.00709614099
-0.00126064215
-0.00718440795
-0.00395461798
-0.00725316242
-0.00666578487
-0.00719199962
-0.0093549699
-0.0068534269
-0.0119011754
-0.00607860613
-0.0140457295
-0.00475889398
-0.0153221065
-0.00295227469
-0.0149883653
-0.00106146574
-0.0120200151
-0.00535788592
-0.00135025215
0.00664251547
-0.00334025798
0.0138707371
-0.0048376849
0.0163381262
-0.00555405444
0.0159295766
-0.00561057782
0.0140547603
-0.00525651422
0.0115641808
-0.00473592979
0.00890767255
-0.00423861284
0.00628458932
-0.00389223981
0.00375255761
-0.00376904471
0.00129561593
-0.00389328856
-0.00113639825
-0.00424394697
-0.00360395952
-0.0047511483
-0.00615858349
-0.00528770088
-0.00881841726
-0.00566132257
-0.0115275536
-0.00562173464
-0.0140853173
-0.00491057045
-0.0160332706
-0.0033987344
-0.0165002013
-0.00137655038
-0.0140421991
-0.00673443624
-0.00179037877
0.00843289426
-0.00371836326
0.0157987217
-0.00450183922
0.0171216022
-0.00418180267
0.0156095402
-0.00317452515
0.0130474829
-0.00189547811
0.0102851338
-0.000655583041
0.00766777751
0.000344280315
0.00528472601
0.000987431994
0.003109406
0.00121448381
0.00106856419
0.00100598686
-0.000927901229
0.00037672581
-0.00297469841
-0.000618107379
-0.00516375025
-0.00186475449
-0.00757177009
-0.0031625775
-0.0102297306
-0.0041962993
-0.0130515955
-0.00454020979
-0.0156893601
-0.00376394377
-0.0172764673
-0.00181751216
-0.0159886307
-0.00855194838
-0.00230764333
0.0107405375
-0.00363211931
0.0171231978
-0.00297442725
0.0164639102
-0.0010688992
0.0137040122
0.00129961453
0.0106789692
0.00360816661
0.00797658179
0.00556236581
0.00571357833
0.00701810158
0.00382899025
0.00791403174
0.00221347587
0.0082276041
0.000754991893
0.00795211338
-0.000652410421
0.00708963472
-0.00211221965
0.00565785377
-0.00373196923
0.00371316374
-0.00562708001
0.00139570826
-0.00791227503
-0.00100057169
-0.0106553155
-0.00294595773
-0.013743974
-0.0036394101
-0.0165830149
-0.00232572337
-0.0173023174
-0.0108776717
-0.00251428347
0.0132548208
-0.00191886274
0.0165277773
0.00123204711
0.0133130005
0.00516960284
0.00976645656
0.00890994605
0.00693862609
0.0120476927
0.00483883521
0.014462182
0.00329908902
0.0161532959
0.00213787637
0.0171566
0.00121017174
0.0175035657
0.00040802629
0.0172052957
-0.000354140364
0.0162479995
-0.0011549233
0.0145966808
-0.00208065044
0.0122107297
-0.00324112887
0.00908363268
-0.00478517795
0.00532949583
-0.00690117854
0.00135184404
-0.00976632213
-0.00185633415
-0.0133748366
-0.00250263391
-0.0166560176
-0.0133803056
-0.000525870677
0.0137806915
0.00469116495
0.0113107418
0.0111379044
0.0068662611
0.0167191943
0.00418516679
0.0210437574
0.00261406303
0.024221783
0.00166080964
0.0264601123
0.00106075971
0.0279395516
0.000658437071
0.028786862
0.000362861373
0.0290749837
0.000119904553
0.0288276759
-0.000106832456
0.0280213505
-0.000348597726
0.0265824914
-0.000641791225
0.0243820511
-0.00104068852
0.0212339685
-0.00163709533
0.0169223218
-0.00258953173
0.0113261625
-0.00417016285
0.00483124018
-0.00687991418
-0.000460419054
-0.0113643582
-0.0138407247
0.0137806916
0.0250914333
0.0319576943
0.036142861
0.038756924
0.0404177337
0.0414784935
0.0421369307
0.0424997921
0.0426196967
0.0425128642
0.0421642664
0.0415224752
0.0404817868
0.0388446916
0.0362551599
0.0320849971
0.0252050829
0.0138407247
)
;

boundaryField
{
    top
    {
        type            calculated;
        value           uniform 0;
    }
    left
    {
        type            calculated;
        value           uniform 0;
    }
    right
    {
        type            calculated;
        value           uniform 0;
    }
    bottom
    {
        type            calculated;
        value           uniform 0;
    }
    back0
    {
        type            empty;
        value           nonuniform 0();
    }
    front1
    {
        type            empty;
        value           nonuniform 0();
    }
}


// ************************************************************************* //
