/*--------------------------------*- C++ -*----------------------------------*\
| =========                 |                                                 |
| \\      /  F ield         | OpenFOAM: The Open Source CFD Toolbox           |
|  \\    /   O peration     | Version:  3.0.1                                 |
|   \\  /    A nd           | Web:      www.OpenFOAM.org                      |
|    \\/     M anipulation  |                                                 |
\*---------------------------------------------------------------------------*/
FoamFile
{
    version     2.0;
    format      ascii;
    class       volVectorField;
    location    "1";
    object      U;
}
// * * * * * * * * * * * * * * * * * * * * * * * * * * * * * * * * * * * * * //

dimensions      [0 1 -1 0 0 0 0];

internalField   nonuniform List<vector> 
400
(
(0.000259015397 -0.000255146514 0)
(0.000163142844 0.000103467574 0)
(-0.00114131597 0.00056291048 0)
(-0.00345164143 0.000892670232 0)
(-0.00637455532 0.00105975102 0)
(-0.00950135629 0.00107585436 0)
(-0.0124624102 0.000965758515 0)
(-0.0149527698 0.000758483799 0)
(-0.0167424154 0.000482986921 0)
(-0.0176780504 0.00016694022 0)
(-0.0176824516 -0.000162989645 0)
(-0.0167540149 -0.000480340726 0)
(-0.0149673441 -0.000757968228 0)
(-0.0124746972 -0.000967393669 0)
(-0.00950711404 -0.00107879985 0)
(-0.00637235436 -0.00106258981 0)
(-0.00344361337 -0.000894001109 0)
(-0.0011322313 -0.000562116726 0)
(0.00016878957 -0.000101406876 0)
(0.000260556224 0.000256261277 0)
(-6.36769612e-05 -0.00019286387 0)
(-0.00156382718 0.00161118269 0)
(-0.00562134394 0.00360991558 0)
(-0.0116624071 0.00506514413 0)
(-0.0188876464 0.00579889959 0)
(-0.026461607 0.00581603432 0)
(-0.033580728 0.00520262487 0)
(-0.0395527492 0.00408406616 0)
(-0.043840977 0.00260079217 0)
(-0.046081552 0.000897205028 0)
(-0.0460898141 -0.000881776512 0)
(-0.0438627997 -0.00259068576 0)
(-0.0395803111 -0.00408264414 0)
(-0.0336042266 -0.00520995461 0)
(-0.0264730109 -0.00582868212 0)
(-0.0188839891 -0.00581110158 0)
(-0.011647254 -0.00507120382 0)
(-0.00560338195 -0.00360721744 0)
(-0.00155190316 -0.00160272606 0)
(-6.01314475e-05 0.000198536439 0)
(-0.000508075153 0.00103297593 0)
(-0.00364518346 0.00566224464 0)
(-0.0104977791 0.010211998 0)
(-0.019930474 0.0134777115 0)
(-0.0307792661 0.0150697788 0)
(-0.0419248762 0.0149605424 0)
(-0.0522860142 0.0133219044 0)
(-0.0609225907 0.0104363642 0)
(-0.0671015546 0.00663923748 0)
(-0.0703238656 0.00228746704 0)
(-0.0703356981 -0.00225412398 0)
(-0.0671331518 -0.00661749177 0)
(-0.0609635655 -0.0104336041 0)
(-0.0523230625 -0.0133384226 0)
(-0.0419465402 -0.0149890402 0)
(-0.030780328 -0.0150977929 0)
(-0.0199143126 -0.0134926672 0)
(-0.0104752851 -0.01020759 0)
(-0.00362888167 -0.00564386567 0)
(-0.000502879911 -0.00101879163 0)
(-0.000901532793 0.00337411264 0)
(-0.00561471903 0.0121026323 0)
(-0.0152160045 0.0199184689 0)
(-0.027895961 0.0253347456 0)
(-0.0420805397 0.0278174031 0)
(-0.0563929266 0.0273453083 0)
(-0.0695394236 0.024214422 0)
(-0.0804102482 0.018908376 0)
(-0.0881484138 0.0120070977 0)
(-0.0921739259 0.00413330927 0)
(-0.0921924283 -0.00407341461 0)
(-0.0881987308 -0.0119670449 0)
(-0.080478352 -0.018901104 0)
(-0.0696067135 -0.0242411256 0)
(-0.0564421453 -0.0273943632 0)
(-0.0421016596 -0.027867993 0)
(-0.0278900725 -0.0253649043 0)
(-0.0151952706 -0.019915668 0)
(-0.0055960962 -0.0120735078 0)
(-0.000894868471 -0.00334869746 0)
(-0.00124878034 0.00671910665 0)
(-0.00746752542 0.0208066008 0)
(-0.0197752248 0.0325560319 0)
(-0.0356413991 0.0403581506 0)
(-0.0530355505 0.0436521037 0)
(-0.0703146361 0.0425092669 0)
(-0.0859993023 0.0374146556 0)
(-0.0988567339 0.0291034585 0)
(-0.107956348 0.0184399665 0)
(-0.112677958 0.00634464868 0)
(-0.112708895 -0.00624104526 0)
(-0.108041928 -0.0183674926 0)
(-0.0989770942 -0.0290831495 0)
(-0.0861271076 -0.0374501253 0)
(-0.0704225757 -0.0425845339 0)
(-0.0531044386 -0.0437360969 0)
(-0.0356665409 -0.0404159141 0)
(-0.0197683755 -0.032564493 0)
(-0.00745103545 -0.02077051 0)
(-0.00124126625 -0.00668124278 0)
(-0.00158017229 0.0110106517 0)
(-0.00929261917 0.0317465015 0)
(-0.0243212117 0.0481287477 0)
(-0.043374308 0.0585358638 0)
(-0.0639228976 0.0625110525 0)
(-0.0840447644 0.0603349216 0)
(-0.102093388 0.0527732207 0)
(-0.116751679 0.040877331 0)
(-0.127059957 0.025836118 0)
(-0.132394989 0.00888906625 0)
(-0.132446271 -0.00871103447 0)
(-0.127203624 -0.0257053192 0)
(-0.116959333 -0.0408270575 0)
(-0.102324618 -0.0528122611 0)
(-0.0842566195 -0.0604434774 0)
(-0.0640809825 -0.0626454947 0)
(-0.0434627935 -0.0586431057 0)
(-0.0243482069 -0.048168299 0)
(-0.0092863406 -0.0317150759 0)
(-0.00157322356 -0.0109620804 0)
(-0.00192625508 0.0162550184 0)
(-0.0111928856 0.0449647218 0)
(-0.0290278605 0.0666848262 0)
(-0.051307984 0.0798753534 0)
(-0.0749609648 0.0843336074 0)
(-0.0977821258 0.0806967086 0)
(-0.117988096 0.070128389 0)
(-0.134227245 0.0540738628 0)
(-0.145564062 0.0340859902 0)
(-0.151415346 0.0117324946 0)
(-0.151496238 -0.0114321418 0)
(-0.145792785 -0.03385566 0)
(-0.134564325 -0.0539651029 0)
(-0.118375657 -0.0701595744 0)
(-0.098155406 -0.0808458999 0)
(-0.0752629461 -0.0845424337 0)
(-0.051504299 -0.0800660684 0)
(-0.029117528 -0.0667895639 0)
(-0.0112092728 -0.0449616201 0)
(-0.00192231312 -0.0162026655 0)
(-0.00231586376 0.022518828 0)
(-0.0132685991 0.060580561 0)
(-0.0340569438 0.0883108556 0)
(-0.0596048097 0.104368279 0)
(-0.0862452076 0.108997029 0)
(-0.111508393 0.103379763 0)
(-0.133532953 0.0892235137 0)
(-0.151009381 0.0684553317 0)
(-0.163100657 0.0430257518 0)
(-0.169320566 0.0148223639 0)
(-0.169440296 -0.0143329167 0)
(-0.163441702 -0.0426372799 0)
(-0.15151969 -0.0682453499 0)
(-0.134133986 -0.0892263784 0)
(-0.112108044 -0.10357499 0)
(-0.0867559071 -0.109310434 0)
(-0.0599643442 -0.104690242 0)
(-0.0342470214 -0.0885329117 0)
(-0.0133249147 -0.0606459227 0)
(-0.00231859015 -0.0224773847 0)
(-0.00277919358 0.0299256873 0)
(-0.0156192211 0.0787851065 0)
(-0.0395457462 0.113109502 0)
(-0.0683429863 0.13194166 0)
(-0.0976948178 0.136245018 0)
(-0.124920393 0.127997819 0)
(-0.148185539 0.109627961 0)
(-0.166340948 0.0836377942 0)
(-0.178752918 0.0523949017 0)
(-0.1851082 0.0180718184 0)
(-0.185273676 -0.0173092566 0)
(-0.179227415 -0.0517728275 0)
(-0.167060571 -0.0832684445 0)
(-0.149050828 -0.109570118 0)
(-0.125808982 -0.128238898 0)
(-0.0984817927 -0.136696625 0)
(-0.0689278398 -0.132455944 0)
(-0.0398814593 -0.113521472 0)
(-0.0157375792 -0.0789796785 0)
(-0.00279365302 -0.0299203909 0)
(-0.00335558801 0.0386597628 0)
(-0.0183589889 0.0998284508 0)
(-0.045610639 0.141148739 0)
(-0.0774898293 0.16236791 0)
(-0.108990982 0.165573728 0)
(-0.137340453 0.153875272 0)
(-0.160905709 0.130632199 0)
(-0.178870066 0.0990101928 0)
(-0.190943338 0.0617850633 0)
(-0.197080719 0.0213405726 0)
(-0.197293153 -0.0202106159 0)
(-0.191556632 -0.0608420773 0)
(-0.17981287 -0.0984094656 0)
(-0.16206262 -0.130466968 0)
(-0.138561406 -0.154151032 0)
(-0.110110851 -0.166194345 0)
(-0.0783600584 -0.163144562 0)
(-0.0461409114 -0.141843194 0)
(-0.018565752 -0.100236473 0)
(-0.00338840765 -0.0387291913 0)
(-0.00410769335 0.0489852284 0)
(-0.0216450058 0.124008345 0)
(-0.0523542132 0.172385209 0)
(-0.0868591479 0.195133979 0)
(-0.119481339 0.196078831 0)
(-0.147583928 0.179902583 0)
(-0.170007125 0.151130231 0)
(-0.186501523 0.113650719 0)
(-0.197291833 0.0705899305 0)
(-0.202708845 0.0244160006 0)
(-0.202959377 -0.0228286865 0)
(-0.198020756 -0.0692384809 0)
(-0.187639389 -0.1127389 0)
(-0.171435237 -0.150795981 0)
(-0.149136118 -0.180183797 0)
(-0.120957527 -0.196885555 0)
(-0.0880572151 -0.1962416 0)
(-0.0531240651 -0.173468929 0)
(-0.0219690746 -0.124737684 0)
(-0.00416716455 -0.0491837682 0)
(-0.00514672321 0.061293593 0)
(-0.0257192299 0.151656705 0)
(-0.0598573593 0.206540618 0)
(-0.0960164032 0.22924706 0)
(-0.128010609 0.22625174 0)
(-0.153753031 0.204366245 0)
(-0.172950895 0.169499635 0)
(-0.186211966 0.126253479 0)
(-0.194456819 0.0779666908 0)
(-0.198489121 0.0269985195 0)
(-0.198754122 -0.024892066 0)
(-0.195235667 -0.0761391587 0)
(-0.187451912 -0.124956162 0)
(-0.174551831 -0.168922919 0)
(-0.155556741 -0.204597996 0)
(-0.129800801 -0.227231753 0)
(-0.0975421709 -0.230733741 0)
(-0.0608943266 -0.208120134 0)
(-0.0261884499 -0.152833816 0)
(-0.00524278271 -0.061693041 0)
(-0.00667695731 0.0761991343 0)
(-0.0309618259 0.18310217 0)
(-0.0681132156 0.242881069 0)
(-0.104061193 0.26293704 0)
(-0.132609224 0.253713443 0)
(-0.152911455 0.224767022 0)
(-0.166064442 0.18350605 0)
(-0.173837093 0.1350932 0)
(-0.17798491 0.0828290594 0)
(-0.179830452 0.0286991952 0)
(-0.18006824 -0.0260728066 0)
(-0.178694884 -0.0805071045 0)
(-0.175001828 -0.133363213 0)
(-0.167632391 -0.182611782 0)
(-0.1547701 -0.224863723 0)
(-0.134563438 -0.254803826 0)
(-0.105835166 -0.264800795 0)
(-0.0694046281 -0.245035192 0)
(-0.0315960154 -0.184858024 0)
(-0.00682084699 -0.0768885268 0)
(-0.00906576617 0.0947025945 0)
(-0.037924662 0.218538203 0)
(-0.0767914353 0.279803983 0)
(-0.109143824 0.293208444 0)
(-0.129924863 0.274899918 0)
(-0.140578777 0.237679535 0)
(-0.144176198 0.190296315 0)
(-0.143858471 0.138083494 0)
(-0.142218665 0.0839086183 0)
(-0.141029191 0.0290636399 0)
(-0.141181279 -0.0260145156 0)
(-0.142689711 -0.0811588671 0)
(-0.14468368 -0.135932276 0)
(-0.145384207 -0.189029312 0)
(-0.142149646 -0.237529402 0)
(-0.131741901 -0.275969639 0)
(-0.110959132 -0.295358805 0)
(-0.0782482376 -0.282539 0)
(-0.0387218357 -0.220978725 0)
(-0.00926852484 -0.0957839281 0)
(-0.0129065008 0.118408508 0)
(-0.0471897205 0.257615075 0)
(-0.0845413372 0.314085425 0)
(-0.107433125 0.315236621 0)
(-0.114222195 0.28480284 0)
(-0.109987278 0.238795863 0)
(-0.100191852 0.186610923 0)
(-0.0892605508 0.133024493 0)
(-0.0803516478 0.0799414678 0)
(-0.0754279884 0.0276432039 0)
(-0.0754292977 -0.0243954277 0)
(-0.0803898607 -0.0769480004 0)
(-0.0894301743 -0.130558834 0)
(-0.100621026 -0.184972108 0)
(-0.110789694 -0.238285522 0)
(-0.115427089 -0.285651343 0)
(-0.108906006 -0.317458161 0)
(-0.0859442101 -0.317272802 0)
(-0.048097055 -0.260766683 0)
(-0.0131729854 -0.119982445 0)
(-0.0188565072 0.149839393 0)
(-0.0584940113 0.298411198 0)
(-0.0871238824 0.33955246 0)
(-0.0910299016 0.32166023 0)
(-0.0757521093 0.276980805 0)
(-0.0511225675 0.223384598 0)
(-0.0247387866 0.169390455 0)
(-0.00161239906 0.118146463 0)
(0.0152211177 0.0700341853 0)
(0.0241041988 0.0241322826 0)
(0.0243019716 -0.0210356617 0)
(0.0157669939 -0.0671083396 0)
(-0.000856890366 -0.115596829 0)
(-0.0239882492 -0.167483843 0)
(-0.0506317558 -0.222453327 0)
(-0.0757442139 -0.277375391 0)
(-0.0915839371 -0.323604249 0)
(-0.0880580438 -0.342864058 0)
(-0.0593477006 -0.302137001 0)
(-0.0191649243 -0.151974046 0)
(-0.0264625476 0.193171184 0)
(-0.0677000572 0.335014282 0)
(-0.0729896676 0.344651783 0)
(-0.0441148832 0.301755962 0)
(0.00159029926 0.244051646 0)
(0.0502176931 0.187354213 0)
(0.0938178222 0.136864043 0)
(0.128367275 0.092959456 0)
(0.152066532 0.0541905322 0)
(0.164225276 0.0185619926 0)
(0.164617573 -0.0160354585 0)
(0.153198047 -0.0517324845 0)
(0.130098651 -0.0906763789 0)
(0.0959093632 -0.134938978 0)
(0.0523325316 -0.186079697 0)
(0.00333406244 -0.243831847 0)
(-0.0430905836 -0.303013894 0)
(-0.0728279621 -0.347547138 0)
(-0.0681295276 -0.338912974 0)
(-0.0267083291 -0.195840576 0)
(-0.0289527588 0.251331311 0)
(-0.0581036235 0.350741878 0)
(-0.014017108 0.309539032 0)
(0.0632657296 0.24240055 0)
(0.142946856 0.180310265 0)
(0.212723675 0.129919382 0)
(0.268472593 0.0905925108 0)
(0.309449111 0.0595774219 0)
(0.336245589 0.0340345675 0)
(0.349654342 0.0115487655 0)
(0.350147445 -0.00995155419 0)
(0.337700198 -0.0324236194 0)
(0.3117826 -0.0579641264 0)
(0.271519098 -0.0890460662 0)
(0.216198007 -0.128613124 0)
(0.146423928 -0.179576103 0)
(0.0662121841 -0.24273585 0)
(-0.0121382842 -0.311417334 0)
(-0.0574832473 -0.354042286 0)
(-0.0288312494 -0.254177674 0)
(0.0132195561 0.289507494 0)
(0.0296816808 0.302854554 0)
(0.154179675 0.214068799 0)
(0.282833664 0.142345204 0)
(0.382969538 0.0939486455 0)
(0.457130767 0.061962427 0)
(0.510502373 0.0405509232 0)
(0.547090372 0.0255473926 0)
(0.569959764 0.0142061029 0)
(0.581116005 0.00473811881 0)
(0.581523231 -0.00414300832 0)
(0.571184829 -0.0135724589 0)
(0.549136751 -0.0248412534 0)
(0.513349733 -0.0397538363 0)
(0.46068661 -0.0611006249 0)
(0.387005927 -0.0931595377 0)
(0.286924314 -0.14196961 0)
(0.15762609 -0.214616944 0)
(0.0318291787 -0.304532296 0)
(0.0142600288 -0.2913245 0)
(0.304245121 0.147454745 0)
(0.405563373 0.127829555 0)
(0.569531336 0.0747834992 0)
(0.686121663 0.0418385741 0)
(0.75352251 0.0238429698 0)
(0.794598178 0.0139302338 0)
(0.820887644 0.0082980179 0)
(0.837586427 0.00488892797 0)
(0.847522232 0.00260052563 0)
(0.852222938 0.000835245252 0)
(0.852350744 -0.00077230789 0)
(0.847917546 -0.00252075338 0)
(0.838285482 -0.00477208968 0)
(0.821949406 -0.00811771243 0)
(0.796091266 -0.0136557976 0)
(0.75550283 -0.0234583731 0)
(0.688596467 -0.0413908845 0)
(0.572194808 -0.0744403286 0)
(0.407524201 -0.12786856 0)
(0.305169546 -0.147795835 0)
)
;

boundaryField
{
    top
    {
        type            fixedValue;
        value           uniform (1 0 0);
    }
    left
    {
        type            fixedValue;
        value           uniform (0 0 0);
    }
    right
    {
        type            fixedValue;
        value           uniform (0 0 0);
    }
    bottom
    {
        type            fixedValue;
        value           uniform (0 0 0);
    }
    back0
    {
        type            empty;
    }
    front1
    {
        type            empty;
    }
}


// ************************************************************************* //
